3
{"name": "water", "energy": -76.4, "method": "B3LYP/def2-SVP"}
O     0.0000000000    0.0000000000    0.0000000000
H     0.0000000000    0.0000000000    0.9572000000
H     0.9239000000    0.0000000000   -0.2399000000
