3
 energy: -4.961366917990 gnorm: 0.966507998479 xtb: 6.5.1 (fef0646)
O            0.00000000000000        0.00000000000000        0.00000000000000
H            0.00000000000000        0.00000000000000        0.95720000000000
H            0.92390000000000        0.00000000000000       -0.23990000000000
3
 energy: -5.065085444089 gnorm: 0.062191935531 xtb: 6.5.1 (fef0646)
O            0.06429052064800        0.00000000000000        0.04914777485420
H           -0.05466758267936       -0.00000000000000        0.96219149056631
H            0.91427706203135       -0.00000000000000       -0.29403926542050
3
 energy: -5.067344431056 gnorm: 0.027276555382 xtb: 6.5.1 (fef0646)
O            0.05431941361313        0.00000000000000        0.04279659187194
H           -0.06494447190381       -0.00000000000000        0.98444756874096
H            0.93452505829068       -0.00000000000000       -0.30994416061290
3
 energy: -5.067480089758 gnorm: 0.001357273316 xtb: 6.5.1 (fef0646)
O            0.05458818153101        0.00000000000000        0.04338745613068
H           -0.06844699398035       -0.00000000000000        0.98832514452371
H            0.93775881244934       -0.00000000000000       -0.31441260065439
3
 energy: -5.067480954244 gnorm: 0.000717664850 xtb: 6.5.1 (fef0646)
O            0.05443935805899        0.00000000000000        0.04329509248034
H           -0.06896567556398       -0.00000000000000        0.98912820898008
H            0.93842631750499       -0.00000000000000       -0.31512330146043
