3
 energy: -5.070351983428 gnorm: 0.020465901126 xtb: 6.5.1 (fef0646)
O            0.00000000000000        0.00000000000000        0.00000000000000
H            0.00000000000000        0.00000000000000        0.95720000000000
H            0.92390000000000        0.00000000000000       -0.23990000000000
3
 energy: -5.070530862894 gnorm: 0.004744466441 xtb: 6.5.1 (fef0646)
O            0.00994772841367        0.00000000000000        0.00674930796621
H           -0.01596747970230        0.00000000000000        0.96855677484057
H            0.92991975128863       -0.00000000000000       -0.25800608280678
3
 energy: -5.070542205941 gnorm: 0.001504123436 xtb: 6.5.1 (fef0646)
O            0.00893210391473        0.00000000000000        0.00746518461603
H           -0.01522986541762        0.00000000000000        0.96714888634651
H            0.93019776150289       -0.00000000000000       -0.25731407096254
3
 energy: -5.070543976480 gnorm: 0.000977623063 xtb: 6.5.1 (fef0646)
O            0.00775094998347        0.00000000000000        0.00758641156406
H           -0.01408249363450        0.00000000000000        0.96584770492996
H            0.93023154365103       -0.00000000000000       -0.25613411649402
