      -----------------------------------------------------------      
     |                   =====================                   |     
     |                           x T B                           |     
     |                   =====================                   |     
     |                         S. Grimme                         |     
     |          Mulliken Center for Theoretical Chemistry        |     
     |                    University of Bonn                     |     
      -----------------------------------------------------------      

   * xtb version 6.5.1 (fef0646) compiled by 'conda@b96dff2e9fd6' on 2023-01-04

   xtb is free software: you can redistribute it and/or modify it under
   the terms of the GNU Lesser General Public License as published by
   the Free Software Foundation, either version 3 of the License, or
   (at your option) any later version.
   
   xtb is distributed in the hope that it will be useful,
   but WITHOUT ANY WARRANTY; without even the implied warranty of
   MERCHANTABILITY or FITNESS FOR A PARTICULAR PURPOSE.  See the
   GNU Lesser General Public License for more details.
   
   Cite this work as:
   * C. Bannwarth, E. Caldeweyher, S. Ehlert, A. Hansen, P. Pracht,
     J. Seibert, S. Spicher, S. Grimme, WIREs Comput. Mol. Sci., 2020, 11,
     e01493. DOI: 10.1002/wcms.1493
   
   for GFN2-xTB:
   * C. Bannwarth, S. Ehlert and S. Grimme., J. Chem. Theory Comput., 2019,
     15, 1652-1671. DOI: 10.1021/acs.jctc.8b01176
   for GFN1-xTB:
   * S. Grimme, C. Bannwarth, P. Shushkov, J. Chem. Theory Comput., 2017,
     13, 1989-2009. DOI: 10.1021/acs.jctc.7b00118
   for GFN0-xTB:
   * P. Pracht, E. Caldeweyher, S. Ehlert, S. Grimme, ChemRxiv, 2019, preprint.
     DOI: 10.26434/chemrxiv.8326202.v1
   for GFN-FF:
   * S. Spicher and S. Grimme, Angew. Chem. Int. Ed., 2020, 59, 15665-15673.
     DOI: 10.1002/anie.202004239
   
   for ALPB and GBSA implicit solvation:
   * S. Ehlert, M. Stahn, S. Spicher, S. Grimme, J. Chem. Theory Comput.,
     2021, 17, 4250-4261. DOI: 10.1021/acs.jctc.1c00471
   
   for DFT-D4:
   * E. Caldeweyher, C. Bannwarth and S. Grimme, J. Chem. Phys., 2017,
     147, 034112. DOI: 10.1063/1.4993215
   * E. Caldeweyher, S. Ehlert, A. Hansen, H. Neugebauer, S. Spicher,
     C. Bannwarth and S. Grimme, J. Chem. Phys., 2019, 150, 154122.
     DOI: 10.1063/1.5090222
   * E. Caldeweyher, J.-M. Mewes, S. Ehlert and S. Grimme, Phys. Chem. Chem. Phys.
     2020, 22, 8499-8512. DOI: 10.1039/D0CP00502A
   
   for sTDA-xTB:
   * S. Grimme and C. Bannwarth, J. Chem. Phys., 2016, 145, 054103.
     DOI: 10.1063/1.4959605
   
   in the mass-spec context:
   * V. Asgeirsson, C. Bauer and S. Grimme, Chem. Sci., 2017, 8, 4879.
     DOI: 10.1039/c7sc00601b
   * J. Koopman and S. Grimme, ACS Omega 2019, 4, 12, 15120-15133.
     DOI: 10.1021/acsomega.9b02011
   
   for metadynamics refer to:
   * S. Grimme, J. Chem. Theory Comput., 2019, 155, 2847-2862
     DOI: 10.1021/acs.jctc.9b00143
   
   for SPH calculations refer to:
   * S. Spicher and S. Grimme, J. Chem. Theory Comput., 2021, 17, 1701-1714
     DOI: 10.1021/acs.jctc.0c01306
   
   with help from (in alphabetical order)
   P. Atkinson, C. Bannwarth, F. Bohle, G. Brandenburg, E. Caldeweyher
   M. Checinski, S. Dohm, S. Ehlert, S. Ehrlich, I. Gerasimov, C. Hölzer
   A. Katbashev, J. Koopman, C. Lavigne, S. Lehtola, F. März, M. Müller,
   F. Musil, H. Neugebauer, J. Pisarek, C. Plett, P. Pracht, F. Pultar,
   J. Seibert, P. Shushkov, S. Spicher, M. Stahn, M. Steiner, T. Strunk,
   J. Stückrath, T. Rose, and J. Unsleber
   
 * started run on 2024/11/29 at 10:10:36.797     

           -------------------------------------------------
          |                Calculation Setup                |
           -------------------------------------------------

          program call               : /home/kreimendahl/miniforge3/envs/chem-env/bin/xtb --opt --namespace xtb --gfn 2 --parallel 2 -- /home/kreimendahl/orca_python/test/xtb/xtb_input.xyz
          calculation namespace      : xtb
          coordinate file            : /home/kreimendahl/orca_python/test/xtb/xtb_input.xyz
          omp threads                :                     2

   ID    Z sym.   atoms
    1    8 O      1
    2    1 H      2, 3

           -------------------------------------------------
          |                 G F N 2 - x T B                 |
           -------------------------------------------------

        Reference                      10.1021/acs.jctc.8b01176
      * Hamiltonian:
        H0-scaling (s, p, d)           1.850000    2.230000    2.230000
        zeta-weighting                 0.500000
      * Dispersion:
        s8                             2.700000
        a1                             0.520000
        a2                             5.000000
        s9                             5.000000
      * Repulsion:
        kExp                           1.500000    1.000000
        rExp                           1.000000
      * Coulomb:
        alpha                          2.000000
        third order                    shell-resolved
        anisotropic                    true
        a3                             3.000000
        a5                             4.000000
        cn-shift                       1.200000
        cn-exp                         4.000000
        max-rad                        5.000000


          ...................................................
          :                      SETUP                      :
          :.................................................:
          :  # basis functions                   6          :
          :  # atomic orbitals                   6          :
          :  # shells                            4          :
          :  # electrons                         8          :
          :  max. iterations                   250          :
          :  Hamiltonian                  GFN2-xTB          :
          :  restarted?                      false          :
          :  GBSA solvation                  false          :
          :  PC potential                    false          :
          :  electronic temp.          300.0000000     K    :
          :  accuracy                    1.0000000          :
          :  -> integral cutoff          0.2500000E+02      :
          :  -> integral neglect         0.1000000E-07      :
          :  -> SCF convergence          0.1000000E-05 Eh   :
          :  -> wf. convergence          0.1000000E-03 e    :
          :  Broyden damping             0.4000000          :
          ...................................................

 iter      E             dE          RMSdq      gap      omega  full diag
   1     -5.1044076 -0.510441E+01  0.430E+00   15.08       0.0  T
   2     -5.1056163 -0.120874E-02  0.250E+00   14.81       1.0  T
   3     -5.1058430 -0.226703E-03  0.376E-01   14.59       1.0  T
   4     -5.1059049 -0.618589E-04  0.857E-02   14.74       1.0  T
   5     -5.1059073 -0.247724E-05  0.528E-02   14.69       1.1  T
   6     -5.1059089 -0.159142E-05  0.125E-03   14.71      46.3  T
   7     -5.1059089 -0.456751E-09  0.941E-04   14.71      61.4  T
   8     -5.1059089 -0.519973E-09  0.173E-05   14.71    3334.1  T

   *** convergence criteria satisfied after 8 iterations ***

         #    Occupation            Energy/Eh            Energy/eV
      -------------------------------------------------------------
         1        2.0000           -0.6819145             -18.5558
         2        2.0000           -0.5666953             -15.4206
         3        2.0000           -0.5146536             -14.0044
         4        2.0000           -0.4475638             -12.1788 (HOMO)
         5                          0.0930594               2.5323 (LUMO)
         6                          0.2497655               6.7965
      -------------------------------------------------------------
                  HL-Gap            0.5406231 Eh           14.7111 eV
             Fermi-level           -0.1772522 Eh           -4.8233 eV

 SCC (total)                   0 d,  0 h,  0 min,  0.003 sec
 SCC setup                      ...        0 min,  0.000 sec (  3.934%)
 Dispersion                     ...        0 min,  0.000 sec (  0.668%)
 classical contributions        ...        0 min,  0.000 sec (  1.732%)
 integral evaluation            ...        0 min,  0.000 sec (  3.369%)
 iterations                     ...        0 min,  0.002 sec ( 51.558%)
 molecular gradient             ...        0 min,  0.001 sec ( 17.673%)
 printout                       ...        0 min,  0.000 sec (  2.358%)

         :::::::::::::::::::::::::::::::::::::::::::::::::::::
         ::                     SUMMARY                     ::
         :::::::::::::::::::::::::::::::::::::::::::::::::::::
         :: total energy              -5.070351983428 Eh    ::
         :: gradient norm              0.020465908164 Eh/a0 ::
         :: HOMO-LUMO gap             14.711104682377 eV    ::
         ::.................................................::
         :: SCC energy                -5.105908931635 Eh    ::
         :: -> isotropic ES            0.031402487387 Eh    ::
         :: -> anisotropic ES          0.000582039930 Eh    ::
         :: -> anisotropic XC         -0.000858854792 Eh    ::
         :: -> dispersion             -0.000141165660 Eh    ::
         :: repulsion energy           0.035556948177 Eh    ::
         :: add. restraining           0.000000000000 Eh    ::
         :: total charge               0.000000000000 e     ::
         :::::::::::::::::::::::::::::::::::::::::::::::::::::

      ----------------------------------------------------------- 
     |                   =====================                   |
     |                        A N C O P T                        |
     |                   =====================                   |
     |               Approximate Normal Coordinate               |
     |                Rational Function Optimizer                |
      ----------------------------------------------------------- 

          ...................................................
          :                      SETUP                      :
          :.................................................:
          :   optimization level            normal          :
          :   max. optcycles                   200          :
          :   ANC micro-cycles                  20          :
          :   degrees of freedom                 3          :
          :.................................................:
          :   RF solver                   davidson          :
          :   write xtbopt.log                true          :
          :   linear?                        false          :
          :   energy convergence         0.5000000E-05 Eh   :
          :   grad. convergence          0.1000000E-02 Eh/α :
          :   maximium RF displ.         1.0000000          :
          :   Hlow (freq-cutoff)         0.1000000E-01      :
          :   Hmax (freq-cutoff)         5.0000000          :
          :   S6 in model hess.         20.0000000          :
          ...................................................

generating ANC from model Hessian ...
Using Lindh-Hessian (1995)
 Shifting diagonal of input Hessian by    0.0000000000000000     
 Lowest  eigenvalues of input Hessian
    0.000000    0.000000    0.000000    0.000000    0.000000    0.000000
    0.303534    1.246349    1.416940
 Highest eigenvalues
    0.000000    0.000000    0.000000    0.303534    1.246349    1.416940


........................................................................
.............................. CYCLE    1 ..............................
........................................................................
   1     -5.1059089 -0.510591E+01  0.205E-06   14.71       0.0  T
   2     -5.1059089 -0.266454E-14  0.996E-07   14.71   57982.0  T
   3     -5.1059089 -0.888178E-15  0.330E-07   14.71  100000.0  T
     SCC iter.                  ...        0 min,  0.000 sec
     gradient                   ...        0 min,  0.000 sec
 * total energy  :    -5.0703520 Eh     change       -0.1749711E-12 Eh
   gradient norm :     0.0181614 Eh/α   predicted     0.0000000E+00 (-100.00%)
   displ. norm   :     0.0564555 α      lambda       -0.9921943E-03
   maximum displ.:     0.0562585 α      in ANC's #1, #2, #3, ...

........................................................................
.............................. CYCLE    2 ..............................
........................................................................
   1     -5.1047272 -0.510473E+01  0.104E-01   14.35       0.0  T
   2     -5.1047284 -0.120955E-05  0.589E-02   14.34       1.0  T
   3     -5.1047286 -0.162282E-06  0.102E-02   14.34       5.6  T
   4     -5.1047286 -0.301128E-07  0.151E-03   14.34      38.3  T
   5     -5.1047286 -0.817675E-10  0.136E-04   14.34     425.4  T
   6     -5.1047286 -0.124523E-11  0.390E-05   14.34    1480.3  T
     SCC iter.                  ...        0 min,  0.000 sec
     gradient                   ...        0 min,  0.000 sec
 * total energy  :    -5.0705309 Eh     change       -0.1788795E-03 Eh
   gradient norm :     0.0047436 Eh/α   predicted    -0.4976795E-03 ( 178.22%)
   displ. norm   :     0.0040646 α      lambda       -0.1697052E-04
   maximum displ.:     0.0029999 α      in ANC's #3, #1, #2, ...

........................................................................
.............................. CYCLE    3 ..............................
........................................................................
   1     -5.1048835 -0.510488E+01  0.108E-02   14.37       0.0  T
   2     -5.1048835 -0.114302E-07  0.646E-03   14.37       8.9  T
   3     -5.1048835 -0.746686E-08  0.111E-03   14.37      51.9  T
   4     -5.1048835 -0.273693E-09  0.220E-04   14.37     262.7  T
   5     -5.1048835 -0.169091E-10  0.440E-05   14.37    1311.4  T
     SCC iter.                  ...        0 min,  0.001 sec
     gradient                   ...        0 min,  0.000 sec
 * total energy  :    -5.0705422 Eh     change       -0.1134305E-04 Eh
   gradient norm :     0.0015039 Eh/α   predicted    -0.8486166E-05 ( -25.19%)
   displ. norm   :     0.0045561 α      lambda       -0.3577358E-05
   maximum displ.:     0.0040457 α      in ANC's #1, #3, #2, ...

........................................................................
.............................. CYCLE    4 ..............................
........................................................................
   1     -5.1049886 -0.510499E+01  0.100E-02   14.40       0.0  T
   2     -5.1049886 -0.117691E-07  0.582E-03   14.40       9.9  T
   3     -5.1049886 -0.423903E-08  0.105E-03   14.40      54.8  T
   4     -5.1049886 -0.374960E-09  0.355E-04   14.40     162.6  T
   5     -5.1049886 -0.220268E-10  0.409E-05   14.40    1410.9  T
     SCC iter.                  ...        0 min,  0.000 sec
     gradient                   ...        0 min,  0.000 sec
 * total energy  :    -5.0705440 Eh     change       -0.1770540E-05 Eh
   gradient norm :     0.0009775 Eh/α   predicted    -0.1791120E-05 (   1.16%)
   displ. norm   :     0.0008382 α      lambda       -0.5418840E-06
   maximum displ.:     0.0007365 α      in ANC's #3, #2, #1, ...

   *** GEOMETRY OPTIMIZATION CONVERGED AFTER 4 ITERATIONS ***

------------------------------------------------------------------------
 total energy gain   :        -0.0001920 Eh       -0.1205 kcal/mol
 total RMSD          :         0.0287496 a0        0.0152 Å
 total power (kW/mol):        -0.1260194 (step) -126.1103 (real)
------------------------------------------------------------------------

 ANCopt (total)                0 d,  0 h,  0 min,  0.004 sec
 optimizer setup                ...        0 min,  0.001 sec ( 16.849%)
 model hessian                  ...        0 min,  0.000 sec (  1.455%)
 ANC generation                 ...        0 min,  0.000 sec (  1.420%)
 coordinate transformation      ...        0 min,  0.000 sec (  0.417%)
 single point calculation       ...        0 min,  0.003 sec ( 64.782%)
 optimization log               ...        0 min,  0.000 sec (  3.846%)
 hessian update                 ...        0 min,  0.000 sec (  0.422%)
 rational function              ...        0 min,  0.000 sec (  4.668%)

================
 final structure:
================
3
 xtb: 6.5.1 (fef0646)
O            0.00775094998347        0.00000000000000        0.00758641156406
H           -0.01408249363450        0.00000000000000        0.96584770492996
H            0.93023154365103       -0.00000000000000       -0.25613411649402

 Bond Distances (Angstroems)
 ---------------------------
O1-H2=0.9585         O1-H3=0.9594         H2-O1=0.9585         H3-O1=0.9594         
 O  H  Rav=0.9590 sigma=0.0005  Rmin=0.9585  Rmax=0.9594     2

 selected bond angles (degree)
 --------------------
H3-O1-H2=107.26                

 selected dihedral angles (degree)
 ---------------------------------

           -------------------------------------------------
          |                Final Singlepoint                |
           -------------------------------------------------

          ...................................................
          :                      SETUP                      :
          :.................................................:
          :  # basis functions                   6          :
          :  # atomic orbitals                   6          :
          :  # shells                            4          :
          :  # electrons                         8          :
          :  max. iterations                   250          :
          :  Hamiltonian                  GFN2-xTB          :
          :  restarted?                      false          :
          :  GBSA solvation                  false          :
          :  PC potential                    false          :
          :  electronic temp.          300.0000000     K    :
          :  accuracy                    1.0000000          :
          :  -> integral cutoff          0.2500000E+02      :
          :  -> integral neglect         0.1000000E-07      :
          :  -> SCF convergence          0.1000000E-05 Eh   :
          :  -> wf. convergence          0.1000000E-03 e    :
          :  Broyden damping             0.4000000          :
          ...................................................

 iter      E             dE          RMSdq      gap      omega  full diag
   1     -5.1049886 -0.510499E+01  0.257E-06   14.40       0.0  T
   2     -5.1049886  0.888178E-15  0.159E-06   14.40   36227.4  T
   3     -5.1049886 -0.177636E-14  0.111E-07   14.40  100000.0  T

   *** convergence criteria satisfied after 3 iterations ***

         #    Occupation            Energy/Eh            Energy/eV
      -------------------------------------------------------------
         1        2.0000           -0.6801019             -18.5065
         2        2.0000           -0.5683514             -15.4656
         3        2.0000           -0.5108286             -13.9004
         4        2.0000           -0.4463847             -12.1467 (HOMO)
         5                          0.0827360               2.2514 (LUMO)
         6                          0.2520970               6.8599
      -------------------------------------------------------------
                  HL-Gap            0.5291207 Eh           14.3981 eV
             Fermi-level           -0.1818244 Eh           -4.9477 eV

 SCC (total)                   0 d,  0 h,  0 min,  0.032 sec
 SCC setup                      ...        0 min,  0.004 sec ( 13.080%)
 Dispersion                     ...        0 min,  0.008 sec ( 24.295%)
 classical contributions        ...        0 min,  0.004 sec ( 12.421%)
 integral evaluation            ...        0 min,  0.012 sec ( 36.466%)
 iterations                     ...        0 min,  0.004 sec ( 13.015%)
 molecular gradient             ...        0 min,  0.000 sec (  0.403%)
 printout                       ...        0 min,  0.000 sec (  0.204%)

         :::::::::::::::::::::::::::::::::::::::::::::::::::::
         ::                     SUMMARY                     ::
         :::::::::::::::::::::::::::::::::::::::::::::::::::::
         :: total energy              -5.070543976481 Eh    ::
         :: gradient norm              0.000977535693 Eh/a0 ::
         :: HOMO-LUMO gap             14.398107028746 eV    ::
         ::.................................................::
         :: SCC energy                -5.104988602475 Eh    ::
         :: -> isotropic ES            0.031460224728 Eh    ::
         :: -> anisotropic ES          0.000391684144 Eh    ::
         :: -> anisotropic XC         -0.000885141158 Eh    ::
         :: -> dispersion             -0.000141076761 Eh    ::
         :: repulsion energy           0.034444625968 Eh    ::
         :: add. restraining           0.000000000000 Eh    ::
         :: total charge              -0.000000000000 e     ::
         :::::::::::::::::::::::::::::::::::::::::::::::::::::

           -------------------------------------------------
          |                Property Printout                |
           -------------------------------------------------

    * Orbital Energies and Occupations

         #    Occupation            Energy/Eh            Energy/eV
      -------------------------------------------------------------
         1        2.0000           -0.6801019             -18.5065
         2        2.0000           -0.5683514             -15.4656
         3        2.0000           -0.5108286             -13.9004
         4        2.0000           -0.4463847             -12.1467 (HOMO)
         5                          0.0827360               2.2514 (LUMO)
         6                          0.2520970               6.8599
      -------------------------------------------------------------
                  HL-Gap            0.5291207 Eh           14.3981 eV
             Fermi-level           -0.1818244 Eh           -4.9477 eV

     #   Z          covCN         q      C6AA      α(0)
     1   8 O        1.611    -0.565    24.359     6.661
     2   1 H        0.806     0.282     0.776     1.384
     3   1 H        0.805     0.282     0.776     1.384

 Mol. C6AA /au·bohr⁶  :         44.535591
 Mol. C8AA /au·bohr⁸  :        795.750732
 Mol. α(0) /au        :          9.429121


Wiberg/Mayer (AO) data.
largest (>0.10) Wiberg bond orders for each atom

 ---------------------------------------------------------------------------
     #   Z sym  total        # sym  WBO       # sym  WBO       # sym  WBO
 ---------------------------------------------------------------------------
     1   8 O    1.840 --     3 H    0.920     2 H    0.920
     2   1 H    0.920 --     1 O    0.920
     3   1 H    0.920 --     1 O    0.920
 ---------------------------------------------------------------------------

Topologies differ in total number of bonds
Writing topology from bond orders to xtbtopo.mol

molecular dipole:
                 x           y           z       tot (Debye)
 q only:        0.481      -0.000       0.371
   full:        0.690      -0.000       0.533       2.216
molecular quadrupole (traceless):
                xx          xy          yy          xz          yz          zz
 q only:        0.369      -0.000      -0.940      -0.381       0.000       0.571
  q+dip:        0.480      -0.000      -1.214      -0.481      -0.000       0.734
   full:        0.590       0.000      -1.473      -0.554       0.000       0.883

           -------------------------------------------------
          |                Geometry Summary                 |
           -------------------------------------------------

      molecular mass/u    :       18.0152864
   center of mass at/Å    :        0.0581414      -0.0000000       0.0464454
  moments of inertia/u·Å² :        0.5789630E+00   0.1201955E+01   0.1780918E+01
rotational constants/cm⁻¹ :        0.2911694E+02   0.1402518E+02   0.9465699E+01

 * 2 selected distances

     #   Z          #   Z                                           value/Å
     1   8 O        2   1 H                                       0.9585101 (min)
     1   8 O        3   1 H                                       0.9594369 (max)

 * 1 distinct bonds (by element types)

   Z      Z             #   av. dist./Å        max./Å        min./Å
   1 H    8 O           2     0.9589735     0.9594369     0.9585101


optimized geometry written to: xtbopt.xyz


           -------------------------------------------------
          | TOTAL ENERGY               -5.070543976481 Eh   |
          | GRADIENT NORM               0.000977535693 Eh/α |
          | HOMO-LUMO GAP              14.398107028746 eV   |
           -------------------------------------------------

------------------------------------------------------------------------
 * finished run on 2024/11/29 at 10:10:37.122     
------------------------------------------------------------------------
 total:
 * wall-time:     0 d,  0 h,  0 min,  0.324 sec
 *  cpu-time:     0 d,  0 h,  0 min,  3.888 sec
 * ratio c/w:    11.987 speedup
 SCF:
 * wall-time:     0 d,  0 h,  0 min,  0.003 sec
 *  cpu-time:     0 d,  0 h,  0 min,  0.124 sec
 * ratio c/w:    39.339 speedup
 ANC optimizer:
 * wall-time:     0 d,  0 h,  0 min,  0.118 sec
 *  cpu-time:     0 d,  0 h,  0 min,  3.436 sec
 * ratio c/w:    29.003 speedup

