
                                 *****************
                                 * O   R   C   A *
                                 *****************

                                            #,                                       
                                            ###                                      
                                            ####                                     
                                            #####                                    
                                            ######                                   
                                           ########,                                 
                                     ,,################,,,,,                         
                               ,,#################################,,                 
                          ,,##########################################,,             
                       ,#########################################, ''#####,          
                    ,#############################################,,   '####,        
                  ,##################################################,,,,####,       
                ,###########''''           ''''###############################       
              ,#####''   ,,,,##########,,,,          '''####'''          '####       
            ,##' ,,,,###########################,,,                        '##       
           ' ,,###''''                  '''############,,,                           
         ,,##''                                '''############,,,,        ,,,,,,###''
      ,#''                                            '''#######################'''  
     '                                                          ''''####''''         
             ,#######,   #######,   ,#######,      ##                                
            ,#'     '#,  ##    ##  ,#'     '#,    #''#        ,####,   ,####,        
            ##       ##  ##   ,#'  ##            #'  '#       #'       #'  '#        
            ##       ##  #######   ##           ,######,      #####,   #    #        
            '#,     ,#'  ##    ##  '#,     ,#' ,#      #,     #,   #   #,  ,#        
             '#######'   ##     ##  '#######'  #'      '#     '####' # '####'        



                #########################################################
                #                        -***-                          #
                #          Department of theory and spectroscopy        #
                #                                                       #
                #                      Frank Neese                      #
                #                                                       #
                #     Directorship, Architecture, Infrastructure        #
                #                    SHARK, DRIVERS                     #
                #        Core code/Algorithms in most modules           #
                #                                                       #
                #        Max Planck Institute fuer Kohlenforschung      #
                #                Kaiser Wilhelm Platz 1                 #
                #                 D-45470 Muelheim/Ruhr                 #
                #                      Germany                          #
                #                                                       #
                #                  All rights reserved                  #
                #                        -***-                          #
                #########################################################


                         Program Version 6.0.1  -  RELEASE   -


 With contributions from (in alphabetic order):
[Max-Planck-Institut fuer Kohlenforschung]                               
  Daniel Aravena         : Magnetic Suceptibility                        
  Michael Atanasov       : Ab Initio Ligand Field Theory (pilot matlab implementation)
  Alexander A. Auer      : GIAO ZORA, VPT2 properties, NMR spectrum      
  Ute Becker             : All parallelization in ORCA, NUMFREQ, NUMCALC 
  Giovanni Bistoni       : ED, misc. LED, open-shell LED, HFLD           
  Martin Brehm           : Molecular dynamics                            
  Dmytro Bykov           : pre 5.0 version of the SCF Hessian            
  Marcos Casanova-Páez   : Triplet and SCS-CIS(D). UHF-(DLPNO)-IP/EA/STEOM-CCSD. UHF-CVS-IP/STEOM-CCSD   
  Vijay G. Chilkuri      : MRCI spin determinant printing, contributions to CSF-ICE 
  Pauline Colinet        : FMM embedding                                 
  Dipayan Datta          : RHF DLPNO-CCSD density                        
  Achintya Kumar Dutta   : EOM-CC, STEOM-CC                              
  Nicolas Foglia         : Exact transition moments, OPA infrastructure, MCD improvements    
  Dmitry Ganyushin       : Spin-Orbit,Spin-Spin,Magnetic field MRCI      
  Miquel Garcia-Rates    : C-PCM and meta-GGA Hessian, CCSD/C-PCM, Gaussian charge scheme 
  Tiago L. C. Gouveia    : GS-ROHF, GS-ROCIS                             
  Yang Guo               : DLPNO-NEVPT2, F12-NEVPT2, CIM, IAO-localization        
  Andreas Hansen         : Spin unrestricted coupled pair/coupled cluster methods 
  Ingolf Harden          : AUTO-CI MPn and infrastructure                
  Benjamin Helmich-Paris : MC-RPA, TRAH-(SCF,CASSCF), AVAS, COSX integrals, SCF dyn. polar. 
  Lee Huntington         : MR-EOM, pCC                                   
  Robert Izsak           : Overlap fitted RIJCOSX, COSX-SCS-MP3, EOM     
  Riya Kayal             : Wick's Theorem for AUTO-CI, AUTO-CI UHF-CCSDT 
  Emily Kempfer          : AUTO-CI, RHF CISDT and CCSDT                  
  Christian Kollmar      : KDIIS, OOCD, Brueckner-CCSD(T), CCSD density, CASPT2, CASPT2-K, improved NEVPT2 
  Axel Koslowski         : Symmetry handling                             
  Simone Kossmann        : meta-GGA functionals, TD-DFT gradient, OOMP2, (MP2 Hessian; deprecated post 5.0) 
  Lucas Lang             : DCDCAS                                        
  Marvin Lechner         : AUTO-CI (C++ implementation), FIC-MRCC        
  Spencer Leger          : CASSCF response                               
  Dagmar Lenk            : GEPOL surface, SMD, ORCA-2-JSON               
  Dimitrios Liakos       : Extrapolation schemes; Compound Job, initial MDCI parallelization 
  Dimitrios Manganas     : Further ROCIS development; embedding schemes. LFT, Crystal Embedding 
  Dimitrios Pantazis     : SARC Basis sets                               
  Anastasios Papadopoulos: AUTO-CI, single reference methods and gradients 
  Taras Petrenko         : pre 6.0 DFT Hessian and TD-DFT gradient, (ASA, deprecated), ECA, 1-Electron XAS/XES, NRVS 
  Peter Pinski           : DLPNO-MP2, DLPNO-MP2 Gradient                 
  Christoph Reimann      : Effective Core Potentials                     
  Marius Retegan         : Local ZFS, SOC                                
  Christoph Riplinger    : Optimizer, TS searches, QM/MM, DLPNO-CCSD(T), (RO)-DLPNO pert. Triples 
  Michael Roemelt        : Original ROCIS implementation                 
  Masaaki Saitow         : Open-shell DLPNO-CCSD energy and density      
  Barbara Sandhoefer     : DKH picture change effects                    
  Kantharuban Sivalingam : CASSCF convergence/infrastructure, NEVPT2 and variants, FIC-MRCI 
  Bernardo de Souza      : ESD, SOC TD-DFT                               
  Georgi L. Stoychev     : AutoAux, RI-MP2 NMR, DLPNO-MP2 response, X2C  
  Van Anh Tran           : RI-MP2 g-tensors                              
  Willem Van den Heuvel  : Paramagnetic NMR                              
  Zikuan Wang            : NOTCH, Electric field optimization            
  Frank Wennmohs         : Technical directorship and infrastructure     
  Hang Xu                : AUTO-CI-Response properties                   
                                                                         
[FACCTs GmbH]                                                            
  Markus Bursch, Miquel Garcia-Rates, Christoph Riplinger, Bernardo de Souza, Georgi L. Stoychev 
                                                                 
  APM, Basis sets (HGBS, AHGBS, def-TZVP (Ac-Lr), def2-XVPD (La-Lu)), CI-OPT, improved COSX, DLPNO-Multilevel,           
  DOCKER, DRACO, updates on ESD, GOAT, IRC, LR-CPCM, MBIS, meta-GGA TD-DFT gradient, ML-optimized integration grids, 
  MM, NACMEs, nearIR, NEB, NEB-TS, NL-DFT gradient (VV10), 2- and 3-layer-ONIOM, interface openCOSMO-RS, QMMM,   
  Crystal-QMMM, SF, symmetry and pop. for TD-DFT, r2SCAN hybrids, SOLVATOR                                   
                                                                         
[Other institutions]                                                     
  V. Asgeirsson          : NEB                                           
  Christoph Bannwarth    : sTDA-DFT, sTD-DFT, PBEh-3c, B97-3c, D3        
  Sebastian Ehlert       : rSCAN, r2SCAN, r2SCAN-3c, D4, dhf basis sets  
  Marvin Friede          : D4 for Fr, Ra, Ac-Lr                          
  Lars Goerigk           : TD-DFT with DH, B97 family of functionals     
  Stefan Grimme          : VdW corrections, initial TS optimization, DFT functionals, gCP, sTDA/sTD-DF 
  Waldemar Hujo          : DFT-NL                                        
  H. Jonsson             : NEB                                           
  Holger Kruse           : gCP                                           
  Marcel Mueller         : wB97X-3c, vDZP basis set                      
  Hagen Neugebauer       : wr2SCAN                                       
  Tobias Risthaus        : range-separated hybrid DFT                    
  Lukas Wittmann         : regularized MP2, r2SCAN double-hybrids, wr2SCAN        
                                                                         
We gratefully acknowledge several colleagues who have allowed us to      
interface, adapt or use parts of their codes:                            
  Ed Valeev, F. Pavosevic, A. Kumar             : LibInt (2-el integral package), F12 methods 
  Garnet Chan, S. Sharma, J. Yang, R. Olivares  : DMRG                   
  Ulf Ekstrom                                   : XCFun DFT Library      
  Mihaly Kallay                                 : mrcc  (arbitrary order and MRCC methods)
  Frank Weinhold                                : gennbo (NPA and NBO analysis)           
  Simon Mueller                                 : openCOSMO-RS                            
  Christopher J. Cramer and Donald G. Truhlar   : smd solvation model                     
  S Lehtola, MJT Oliveira, MAL Marques          : LibXC Library                           
  Liviu Ungur et al                             : ANISO software                          


 Your calculation uses the libint2 library for the computation of 2-el integrals
 For citations please refer to: http://libint.valeyev.net

 Your ORCA version has been built with support for libXC version: 6.2.2
 For citations please refer to: https://libxc.gitlab.io

 This ORCA versions uses:
   CBLAS   interface :  Fast vector & matrix operations
   LAPACKE interface :  Fast linear algebra routines
   SCALAPACK package :  Parallel linear algebra routines
   Shared memory     :  Shared parallel matrices
   BLAS/LAPACK       :  OpenBLAS 0.3.27  USE64BITINT DYNAMIC_ARCH NO_AFFINITY Haswell SINGLE_THREADED
        Core in use  :  Haswell
   Copyright (c) 2011-2014, The OpenBLAS Project


NOTE: MaxCore=3000 MB was set to SCF,MP2,MDCI,CIPSI,MRCI and CIS
      => If you want to overwrite this, your respective input block should be placed after the MaxCore statement
Warning: RI is on but no J-basis has been assigned. Assigning Def2/J (nothing to worry about!)
================================================================================

----- Orbital basis set information -----
Your calculation utilizes the basis: STO-3G
   H-Ne       : W. J. Hehre, R. F. Stewart and J. A. Pople, J. Chem. Phys. 2657 (1969).
   Na-Ar      : W. J. Hehre, R. Ditchfield, R. F. Stewart and J. A. Pople, J. Chem. Phys. 2769 (1970).
   K,Ca,Ga-Kr : W. J. Pietro, B. A. Levy, W. J. Hehre and R. F. Stewart, J. Am. Chem. Soc. 19, 2225 (1980).
   Sc-Zn,Y-Cd : W. J. Pietro and W. J. Hehre, J. Comp. Chem. 4, 241 (1983).

----- AuxJ basis set information -----
Your calculation utilizes the auxiliary basis: def2/J
   F. Weigend, Phys. Chem. Chem. Phys. 8, 1057 (2006).

================================================================================
                                        WARNINGS
                       Please study these warnings very carefully!
================================================================================

INFO   : Checking CIS options ...

WARNING: Analytical Frequencies for this method not available!
  ===> : Switching to Numerical Frequencies!

WARNING: The environment variable RSH_COMMAND is not set!
  ===> : All Displacements for the Numerical Hessian or Gradient calculation
         will be started on localhost

WARNING: Geometry Optimization
  ===> : Switching off AutoStart
         For restart on a previous wavefunction, please use MOREAD

WARNING: CIS/ROCIS methods need fully converged wavefunctions
  ===> : Setting SCFConvForced true
         You can overwrite this default with %scf ConvForced false 


================================================================================
                                       INPUT FILE
================================================================================
NAME = /home/kreimendahl/orca_python/test/orca/orca.inp
|  1> ! b3lyp sto-3g opt freq largeprint printmos
|  2> %base
|  3>           "orca"
|  4> %pal
|  5>           nprocs 2
|  6> end
|  7> %maxcore
|  8>           3000
|  9> %tddft
| 10>           nroots 10
| 11> end
| 12> %freq
| 13>           temp 293
| 14> end
| 15> * xyz 0 1
| 16> O      0.00000    0.00000    0.00000
| 17> H      0.00000    0.00000    0.95720
| 18> H      0.92390    0.00000   -0.23990
| 19> **                         ****END OF INPUT****
================================================================================

                       *****************************
                       * Geometry Optimization Run *
                       *****************************

Geometry optimization settings:
Update method            Update   .... BFGS
Choice of coordinates    CoordSys .... (2022) Redundant Internals
Initial Hessian          InHess   .... Almloef's Model
Max. no of cycles        MaxIter  .... 50

Convergence Tolerances:
Energy Change            TolE     ....  5.0000e-06 Eh
Max. Gradient            TolMAXG  ....  3.0000e-04 Eh/bohr
RMS Gradient             TolRMSG  ....  1.0000e-04 Eh/bohr
Max. Displacement        TolMAXD  ....  4.0000e-03 bohr
RMS Displacement         TolRMSD  ....  2.0000e-03 bohr
Strict Convergence                .... False

------------------------------------------------------------------------------
                        ORCA OPTIMIZATION COORDINATE SETUP
------------------------------------------------------------------------------

The optimization will be done in redundant internal coordinates (2022)
Making redundant internal coordinates   ...  (2022 redundants) done
Evaluating the initial hessian          ...  (Almloef) done
Evaluating the coordinates              ...  done
Calculating the B-matrix                .... done
Calculating the G-matrix                .... done
Diagonalizing the G-matrix              .... done
The first mode is                       ....    0
The number of degrees of freedom        ....    3

    -----------------------------------------------------------------
                    Redundant Internal Coordinates


    -----------------------------------------------------------------
         Definition                    Initial Value    Approx d2E/dq
    -----------------------------------------------------------------
      1. B(H   1,O   0)                  0.9572         0.525332   
      2. B(H   2,O   0)                  0.9545         0.530494   
      3. A(H   1,O   0,H   2)          104.5560         0.323439   
    -----------------------------------------------------------------

Number of atoms                         .... 3
Number of degrees of freedom            .... 3


         *************************************************************
         *                GEOMETRY OPTIMIZATION CYCLE   1            *
         *************************************************************
---------------------------------
CARTESIAN COORDINATES (ANGSTROEM)
---------------------------------
  O      0.000000    0.000000    0.000000
  H      0.000000    0.000000    0.957200
  H      0.923900    0.000000   -0.239900

----------------------------
CARTESIAN COORDINATES (A.U.)
----------------------------
  NO LB      ZA    FRAG     MASS         X           Y           Z
   0 O     8.0000    0    15.999    0.000000    0.000000    0.000000
   1 H     1.0000    0     1.008    0.000000    0.000000    1.808846
   2 H     1.0000    0     1.008    1.745918    0.000000   -0.453345

--------------------------------
INTERNAL COORDINATES (ANGSTROEM)
--------------------------------
 O      0   0   0     0.000000000000     0.00000000     0.00000000
 H      1   0   0     0.957200000000     0.00000000     0.00000000
 H      1   2   0     0.954538223436   104.55597494     0.00000000

---------------------------
INTERNAL COORDINATES (A.U.)
---------------------------
 O      0   0   0     0.000000000000     0.00000000     0.00000000
 H      1   0   0     1.808845855389     0.00000000     0.00000000
 H      1   2   0     1.803815826653   104.55597494     0.00000000

---------------------
BASIS SET INFORMATION
---------------------
There are 2 groups of distinct atoms

 Group   1 Type O   : 6s3p contracted to 2s1p pattern {33/3}
 Group   2 Type H   : 3s contracted to 1s pattern {3}

Atom   0O    basis set group =>   1
Atom   1H    basis set group =>   2
Atom   2H    basis set group =>   2

-------------------------
BASIS SET IN INPUT FORMAT
-------------------------

 # Basis set for element : H 
 NewGTO H 
 S 3 
   1       3.4252509100      0.1543289707
   2       0.6239137300      0.5353281424
   3       0.1688554000      0.4446345420
  end;

 # Basis set for element : O 
 NewGTO O 
 S 3 
   1     130.7093200000      0.1543289687
   2      23.8088610000      0.5353281356
   3       6.4436083000      0.4446345363
 S 3 
   1       5.0331513000     -0.0999672287
   2       1.1695961000      0.3995128246
   3       0.3803890000      0.7001154606
 P 3 
   1       5.0331513000      0.1559162685
   2       1.1695961000      0.6076837141
   3       0.3803890000      0.3919573862
  end;

---------------------------------
AUXILIARY/J BASIS SET INFORMATION
---------------------------------
There are 2 groups of distinct atoms

 Group   1 Type O   : 12s5p4d2f1g contracted to 6s4p3d1f1g pattern {711111/2111/211/2/1}
 Group   2 Type H   : 5s2p1d contracted to 3s1p1d pattern {311/2/1}

Atom   0O    basis set group =>   1
Atom   1H    basis set group =>   2
Atom   2H    basis set group =>   2

-------------------------------------
AUXILIARY/J BASIS SET IN INPUT FORMAT
-------------------------------------

 # Auxiliary/J basis set for element : H 
 NewAuxJGTO H 
 S 3 
   1      15.6752927000      0.1007184237
   2       3.6063578000      0.3404257499
   3       1.2080016000      0.6491996172
 S 1 
   1       0.4726794000      1.0000000000
 S 1 
   1       0.2018100000      1.0000000000
 P 2 
   1       2.0281365000      0.5596620919
   2       0.5358730000      0.5596620919
 D 1 
   1       2.2165124000      1.0000000000
  end;

 # Auxiliary/J basis set for element : O 
 NewAuxJGTO O 
 S 7 
   1    2876.8216605000      0.0168151159
   2    1004.7443032000      0.0340137548
   3     369.7579954000      0.1194951309
   4     142.9442404000      0.2664627624
   5      57.8366425000      0.4202764046
   6      24.3864983000      0.2765077335
   7      10.6622662000      0.0057008815
 S 1 
   1       4.8070437000     -1.0000000000
 S 1 
   1       2.2210770000      1.0000000000
 S 1 
   1       1.0447795000      1.0000000000
 S 1 
   1       0.4968425000      1.0000000000
 S 1 
   1       0.2371384000      1.0000000000
 P 2 
   1      64.2613382000     -0.2731534179
   2      16.3006076000     -0.8168011598
 P 1 
   1       4.3550542000      1.0000000000
 P 1 
   1       1.2019554000      1.0000000000
 P 1 
   1       0.3354196000      1.0000000000
 D 2 
   1       9.2146611000     -0.4661230638
   2       2.8435251000     -0.6600908911
 D 1 
   1       0.9955759000     -1.0000000000
 D 1 
   1       0.3649441000     -1.0000000000
 F 2 
   1       2.6420115000      0.5931563945
   2       0.7345613000      0.5931563945
 G 1 
   1       1.3931000000     -1.0000000000
  end;



           ************************************************************
           *        Program running with 2 parallel MPI-processes     *
           *              working on a common directory               *
           ************************************************************
------------------------------------------------------------------------------
                             ORCA STARTUP CALCULATIONS
                           -- RI-GTO INTEGRALS CHOSEN --
------------------------------------------------------------------------------
------------------------------------------------------------------------------
                   ___                                                        
                  /   \      - P O W E R E D   B Y -                         
                 /     \                                                     
                 |  |  |   _    _      __       _____    __    __             
                 |  |  |  | |  | |    /  \     |  _  \  |  |  /  |          
                  \  \/   | |  | |   /    \    | | | |  |  | /  /          
                 / \  \   | |__| |  /  /\  \   | |_| |  |  |/  /          
                |  |  |   |  __  | /  /__\  \  |    /   |      \           
                |  |  |   | |  | | |   __   |  |    \   |  |\   \          
                \     /   | |  | | |  |  |  |  | |\  \  |  | \   \       
                 \___/    |_|  |_| |__|  |__|  |_| \__\ |__|  \__/        
                                                                              
                      - O R C A' S   B I G   F R I E N D -                    
                                      &                                       
                       - I N T E G R A L  F E E D E R -                       
                                                                              
 v1 FN, 2020, v2 2021, v3 2022-2024                                           
------------------------------------------------------------------------------


----------------------
SHARK INTEGRAL PACKAGE
----------------------

Number of atoms                             ...      3
Number of basis functions                   ...      7
Number of shells                            ...      5
Maximum angular momentum                    ...      1
Integral batch strategy                     ... SHARK/LIBINT Hybrid
RI-J (if used) integral strategy            ... SPLIT-RIJ (Revised 2003 algorithm where possible)
Printlevel                                  ...      1
Contraction scheme used                     ... SEGMENTED contraction
Prescreening option                         ... SCHWARTZ
   Thresh                                   ... 2.500e-11
   Tcut                                     ... 2.500e-12
   Tpresel                                  ... 2.500e-12 
Coulomb Range Separation                    ... NOT USED
Exchange Range Separation                   ... NOT USED
Multipole approximations                    ... NOT USED
Finite Nucleus Model                        ... NOT USED
CABS basis                                  ... NOT available
Auxiliary Coulomb fitting basis             ... AVAILABLE
   # of basis functions in Aux-J            ...     71
   # of shells in Aux-J                     ...     25
   Maximum angular momentum in Aux-J        ...      4
Auxiliary J/K fitting basis                 ... NOT available
Auxiliary Correlation fitting basis         ... NOT available
Auxiliary 'external' fitting basis          ... NOT available

Checking pre-screening integrals            ... done (  0.0 sec) Dimension = 5
Check shell pair data                       ... done (  0.0 sec)
Shell pair information
Shell pair cut-off parameter TPreSel        ...   2.5e-12
Total number of shell pairs                 ...        15
Shell pairs after pre-screening             ...        15
Total number of primitive shell pairs       ...       135
Primitive shell pairs kept                  ...       135
          la=0 lb=0:     10 shell pairs
          la=1 lb=0:      4 shell pairs
          la=1 lb=1:      1 shell pairs

Calculating one electron integrals          ... done (  0.0 sec)
Calculating RI/J V-Matrix + Cholesky decomp.... done (  0.0 sec)
Calculating Nuclear repulsion               ... done (  0.0 sec) ENN=      9.207699215382 Eh

Diagonalization of the overlap matrix:
Smallest eigenvalue                        ... 3.413e-01
Time for diagonalization                   ...    0.000 sec
Threshold for overlap eigenvalues          ... 1.000e-07
Number of eigenvalues below threshold      ... 0
Time for construction of square roots      ...    0.002 sec
Total time needed                          ...    0.014 sec

-------------------
DFT GRID GENERATION
-------------------

General Integration Accuracy     IntAcc      ... 4.388
Radial Grid Type                 RadialGrid  ... OptM3 with GC (2021)
Angular Grid (max. ang.)         AngularGrid ... 4 (Lebedev-302)
Angular grid pruning method      GridPruning ... 4 (adaptive)
Weight generation scheme         WeightScheme... mBecke (2022)
Basis function cutoff            BFCut       ... 1.0000e-11
Integration weight cutoff        WCut        ... 1.0000e-14
Partially contracted basis set               ... off
Rotationally invariant grid construction     ... off
Angular grids for H and He will be reduced by one unit

Total number of grid points                  ...    12743
Total number of batches                      ...      201
Average number of points per batch           ...       63
Average number of grid points per atom       ...     4248

--------------------
COSX GRID GENERATION
--------------------

GRIDX 1
-------
General Integration Accuracy     IntAcc      ... 3.816
Radial Grid Type                 RadialGrid  ... OptM3 with GC (2021)
Angular Grid (max. ang.)         AngularGrid ... 1 (Lebedev-50)
Angular grid pruning method      GridPruning ... 4 (adaptive)
Weight generation scheme         WeightScheme... mBecke (2022)
Basis function cutoff            BFCut       ... 1.0000e-11
Integration weight cutoff        WCut        ... 1.0000e-14
Partially contracted basis set               ... on
Rotationally invariant grid construction     ... off
Angular grids for H and He will be reduced by one unit

Total number of grid points                  ...     1651
Total number of batches                      ...       14
Average number of points per batch           ...      117
Average number of grid points per atom       ...      550
UseSFitting                                  ... on

GRIDX 2
-------
General Integration Accuracy     IntAcc      ... 4.020
Radial Grid Type                 RadialGrid  ... OptM3 with GC (2021)
Angular Grid (max. ang.)         AngularGrid ... 2 (Lebedev-110)
Angular grid pruning method      GridPruning ... 4 (adaptive)
Weight generation scheme         WeightScheme... mBecke (2022)
Basis function cutoff            BFCut       ... 1.0000e-11
Integration weight cutoff        WCut        ... 1.0000e-14
Partially contracted basis set               ... on
Rotationally invariant grid construction     ... off
Angular grids for H and He will be reduced by one unit

Total number of grid points                  ...     3501
Total number of batches                      ...       29
Average number of points per batch           ...      120
Average number of grid points per atom       ...     1167
UseSFitting                                  ... on

GRIDX 3
-------
General Integration Accuracy     IntAcc      ... 4.338
Radial Grid Type                 RadialGrid  ... OptM3 with GC (2021)
Angular Grid (max. ang.)         AngularGrid ... 3 (Lebedev-194)
Angular grid pruning method      GridPruning ... 4 (adaptive)
Weight generation scheme         WeightScheme... mBecke (2022)
Basis function cutoff            BFCut       ... 1.0000e-11
Integration weight cutoff        WCut        ... 1.0000e-14
Partially contracted basis set               ... on
Rotationally invariant grid construction     ... off
Angular grids for H and He will be reduced by one unit

Total number of grid points                  ...     7775
Total number of batches                      ...       62
Average number of points per batch           ...      125
Average number of grid points per atom       ...     2592
UseSFitting                                  ... on
Initializing property integral containers    ... done (  0.0 sec)

SHARK setup successfully completed in   0.4 seconds

Maximum memory used throughout the entire STARTUP-calculation: 6.3 MB


           ************************************************************
           *        Program running with 2 parallel MPI-processes     *
           *              working on a common directory               *
           ************************************************************
-------------------------------------------------------------------------------
                                 ORCA GUESS
                   Start orbitals & Density for SCF / CASSCF
-------------------------------------------------------------------------------

------------
SCF SETTINGS
------------
Hamiltonian:
 Density Functional     Method          .... DFT(GTOs)
 Exchange Functional    Exchange        .... B88
   X-Alpha parameter    XAlpha          ....  0.666667
   Becke's b parameter  XBeta           ....  0.004200
 Correlation Functional Correlation     .... LYP
 LDA part of GGA corr.  LDAOpt          .... VWN-5
 Gradients option       PostSCFGGA      .... off
 Hybrid DFT is turned on
   Fraction HF Exchange ScalHFX         ....  0.200000
   Scaling of DF-GGA-X  ScalDFX         ....  0.720000
   Scaling of DF-GGA-C  ScalDFC         ....  0.810000
   Scaling of DF-LDA-C  ScalLDAC        ....  1.000000
   Perturbative correction              ....  0.000000
   NL short-range parameter             ....  4.800000
 RI-approximation to the Coulomb term is turned on
   Number of AuxJ basis functions       .... 71
   RIJ-COSX (HFX calculated with COS-X)).... on


General Settings:
 Integral files         IntName         .... orca
 Hartree-Fock type      HFTyp           .... RHF
 Total Charge           Charge          ....    0
 Multiplicity           Mult            ....    1
 Number of Electrons    NEL             ....   10
 Basis Dimension        Dim             ....    7
 Nuclear Repulsion      ENuc            ....      9.2076992154 Eh

Convergence Acceleration:
 AO-DIIS                CNVDIIS         .... on
   Start iteration      DIISMaxIt       ....    12
   Startup error        DIISStart       ....  0.200000
   # of expansion vecs  DIISMaxEq       ....     5
   Bias factor          DIISBfac        ....   1.050
   Max. coefficient     DIISMaxC        ....  10.000
 MO-DIIS                CNVKDIIS        .... off
 Trust-Rad. Augm. Hess. CNVTRAH         .... auto
   Auto Start mean grad. ratio tolernc. ....  1.125000
   Auto Start start iteration           ....    50
   Auto Start num. interpolation iter.  ....    10
   Max. Number of Micro iterations      ....    24
   Max. Number of Macro iterations      .... Maxiter - #DIIS iter
   Number of Davidson start vectors     ....     2
   Converg. threshold    (grad. norm)   ....   1.000e-05
   Grad. Scal. Fac. for Micro threshold ....   0.100
   Minimum threshold for Micro iter.    ....   1.000e-02
   NR start threshold (gradient norm)   ....   1.000e-04
   Initial trust radius                 ....   0.400
   Minimum AH scaling param. (alpha)    ....   1.000
   Maximum AH scaling param. (alpha)    .... 1000.000
   Quad. conv. algorithm                .... NR
   White noise on init. David. guess    .... on
   Maximum white noise                  ....   0.010
   Pseudo random numbers                .... off
   Inactive MOs                         .... canonical
   Orbital update algorithm             .... Taylor
   Preconditioner                       .... Diag
   Full preconditioner red. dimension   ....   250
 SOSCF                  CNVSOSCF        .... on
   Start iteration      SOSCFMaxIt      ....   150
   Startup grad/error   SOSCFStart      ....  0.003300
   Hessian update       SOSCFHessUp     .... L-BFGS
 Level Shifting         CNVShift        .... on
   Level shift para.    LevelShift      ....    0.2500
   Turn off err/grad.   ShiftErr        ....    0.0010
 Zerner damping         CNVZerner       .... off
 Static damping         CNVDamp         .... on
   Fraction old density DampFac         ....    0.7000
   Max. Damping (<1)    DampMax         ....    0.9800
   Min. Damping (>=0)   DampMin         ....    0.0000
   Turn off err/grad.   DampErr         ....    0.1000

SCF Procedure:
 Maximum # iterations   MaxIter         ....   125
 SCF integral mode      SCFMode         .... Direct
   Integral package                     .... SHARK and LIBINT hybrid scheme
 Reset frequency        DirectResetFreq ....    20
 Integral Threshold     Thresh          ....  2.500e-11 Eh
 Primitive CutOff       TCut            ....  2.500e-12 Eh

Convergence Tolerance:
 Convergence Check Mode ConvCheckMode   .... Total+1el-Energy
 Convergence forced     ConvForced      .... 1
 Energy Change          TolE            ....  1.000e-08 Eh
 1-El. energy change                    ....  1.000e-05 Eh
 Orbital Gradient       TolG            ....  1.000e-05
 Orbital Rotation angle TolX            ....  1.000e-05
 DIIS Error             TolErr          ....  5.000e-07

------------------------------
INITIAL GUESS: MODEL POTENTIAL
------------------------------
Loading Hartree-Fock densities                     ... done
Calculating cut-offs                               ... done
Initializing the effective Hamiltonian             ... done
Setting up the integral package (SHARK)            ... done
Starting the Coulomb interaction                   ... done (   0.0 sec)
Making the grid                                    ... done (   0.0 sec)
Mapping shells                                     ... done
Starting the XC term evaluation                    ... done (   0.0 sec)
  promolecular density results
     # of electrons  =      9.998906473
     EX              =     -8.784411742
     EC              =     -0.334717248
     EX+EC           =     -9.119128990
Transforming the Hamiltonian                       ... done (   0.0 sec)
Diagonalizing the Hamiltonian                      ... done (   0.0 sec)
Back transforming the eigenvectors                 ... done (   0.0 sec)
Now organizing SCF variables                       ... done
                      ------------------
                      INITIAL GUESS DONE (   0.1 sec)
                      ------------------
----------------------
INITIAL GUESS ORBITALS
----------------------
                      0         1         2         3         4         5   
                 -18.67745  -1.02974  -0.55271  -0.41641  -0.32571   0.19988
                   2.00000   2.00000   2.00000   2.00000   2.00000   0.00000
                  --------  --------  --------  --------  --------  --------
  0O   1s        -0.993020 -0.242055 -0.000463 -0.091524 -0.000000  0.132770
  0O   2s        -0.031605  0.874560  0.002297  0.454632  0.000000 -0.892984
  0O   1pz       -0.002445  0.087477  0.562337 -0.511250 -0.000000 -0.424558
  0O   1px       -0.003198  0.114598 -0.436423 -0.659200 -0.000000 -0.524271
  0O   1py        0.000000 -0.000000  0.000000  0.000000 -1.000000 -0.000000
  1H   1s         0.007512  0.123663  0.349824 -0.217306  0.000000  0.836623
  2H   1s         0.007557  0.124672 -0.349792 -0.216049 -0.000000  0.808454
                      6   
                   0.27282
                   0.00000
                  --------
  0O   1s         0.002464
  0O   2s        -0.017731
  0O   1pz        0.719199
  0O   1px       -0.571658
  0O   1py       -0.000000
  1H   1s        -0.868616
  2H   1s         0.898645
             **** ENERGY FILE WAS UPDATED (orca.en.tmp) ****
Finished Guess after   0.4 sec
Maximum memory used throughout the entire GUESS-calculation: 4.4 MB


           ************************************************************
           *        Program running with 2 parallel MPI-processes     *
           *              working on a common directory               *
           ************************************************************

-------------------------------------------------------------------------------------------
                                      ORCA LEAN-SCF
                              memory conserving SCF solver
-------------------------------------------------------------------------------------------

----------------------------------------D-I-I-S--------------------------------------------
Iteration    Energy (Eh)           Delta-E    RMSDP     MaxDP     DIISErr   Damp  Time(sec)
-------------------------------------------------------------------------------------------
               ***  Starting incremental Fock matrix formation  ***
    1    -75.2182691387236559     0.00e+00  3.82e-02  9.55e-02  2.15e-01  0.700   0.1

                         ----------------------------
                         !        ITERATION     0   !
                         ----------------------------
   Total Energy        :     -75.218269138724 Eh
   Energy Change       :      75.218269138724 Eh
   MAX-DP              :       0.095468986035
   RMS-DP              :       0.038178410044
   Actual Damping      :       0.7000
   Actual Level Shift  :       0.2500 Eh
   alpha HOMO          :      -0.0056 Eh
   alpha LUMO          :       0.6617 Eh
   Int. Num. El.       :     9.99999756 (UP=    4.99999878 DN=    4.99999878)
   Exchange            :    -7.30122593 Eh
   Correlation         :    -0.40851607 Eh
   DIIS-Error          :       0.215162538666

    2    -75.2419549629172764    -2.37e-02  3.02e-02  7.44e-02  1.31e-01  0.700   0.1

                         ----------------------------
                         !        ITERATION     1   !
                         ----------------------------
   Total Energy        :     -75.241954962917 Eh
   Energy Change       :       0.023685824194 Eh
   MAX-DP              :       0.074359016887
   RMS-DP              :       0.030233363547
   Actual Damping      :       0.7000
   Actual Level Shift  :       0.2500 Eh
   alpha HOMO          :      -0.0591 Eh
   alpha LUMO          :       0.6424 Eh
   Int. Num. El.       :     9.99999761 (UP=    4.99999880 DN=    4.99999880)
   Exchange            :    -7.25622144 Eh
   Correlation         :    -0.40613511 Eh
   DIIS-Error          :       0.131494043243

                               ***Turning on AO-DIIS***
    3    -75.2542213510975841    -1.23e-02  1.31e-02  3.28e-02  6.64e-02  0.700   0.2

                         ----------------------------
                         !        ITERATION     2   !
                         ----------------------------
   Total Energy        :     -75.254221351098 Eh
   Energy Change       :       0.012266388180 Eh
   MAX-DP              :       0.032768092355
   RMS-DP              :       0.013142959327
   Actual Damping      :       0.7000
   Actual Level Shift  :       0.2500 Eh
   alpha HOMO          :      -0.1379 Eh
   alpha LUMO          :       0.6099 Eh
   Int. Num. El.       :     9.99999764 (UP=    4.99999882 DN=    4.99999882)
   Exchange            :    -7.22380450 Eh
   Correlation         :    -0.40434438 Eh
   DIIS-Error          :       0.066449098787
   DIIS coefficients:
     -0.26101  -0.32321   1.58422

    4    -75.2612144963000418    -6.99e-03  2.32e-02  5.88e-02  3.98e-02  0.000   0.1

                         ----------------------------
                         !        ITERATION     3   !
                         ----------------------------
   Total Energy        :     -75.261214496300 Eh
   Energy Change       :       0.006993145202 Eh
   MAX-DP              :       0.058774355057
   RMS-DP              :       0.023167642661
   Actual Damping      :       0.0000
   Actual Level Shift  :       0.2500 Eh
   alpha HOMO          :      -0.1399 Eh
   alpha LUMO          :       0.6102 Eh
   Int. Num. El.       :     9.99999766 (UP=    4.99999883 DN=    4.99999883)
   Exchange            :    -7.21132310 Eh
   Correlation         :    -0.40362797 Eh
   DIIS-Error          :       0.039836246518
   DIIS coefficients:
     -0.09858  -0.15480  -0.21694   1.47032

    5    -75.2754068523958324    -1.42e-02  2.54e-03  6.01e-03  6.54e-03  0.000   0.1

                         ----------------------------
                         !        ITERATION     4   !
                         ----------------------------
   Total Energy        :     -75.275406852396 Eh
   Energy Change       :       0.014192356096 Eh
   MAX-DP              :       0.006012742433
   RMS-DP              :       0.002536914143
   Actual Damping      :       0.0000
   Actual Level Shift  :       0.2500 Eh
   alpha HOMO          :      -0.1409 Eh
   alpha LUMO          :       0.6108 Eh
   Int. Num. El.       :     9.99999768 (UP=    4.99999884 DN=    4.99999884)
   Exchange            :    -7.19059548 Eh
   Correlation         :    -0.40241150 Eh
   DIIS-Error          :       0.006536902777
   DIIS coefficients:
      0.00767   0.01251   0.02023   0.03189   0.92771

                              *** Initializing SOSCF ***
---------------------------------------S-O-S-C-F--------------------------------------
Iteration    Energy (Eh)           Delta-E    RMSDP     MaxDP     MaxGrad    Time(sec)
--------------------------------------------------------------------------------------
    6    -75.2754557522772814    -4.89e-05  6.86e-04  1.53e-03  1.45e-03     0.2

                         ----------------------------
                         !        ITERATION     5   !
                         ----------------------------
   Total Energy        :     -75.275455752277 Eh
   Energy Change       :       0.000048899881 Eh
   MAX-DP              :       0.001532100948
   RMS-DP              :       0.000685876441
   Orbital gradient    :       0.001452021553
   Orbital Rotation    :       0.001452021553
   alpha HOMO          :      -0.1417 Eh
   alpha LUMO          :       0.3605 Eh
   Int. Num. El.       :     9.99999768 (UP=    4.99999884 DN=    4.99999884)
   Exchange            :    -7.19288927 Eh
   Correlation         :    -0.40254660 Eh

               *** Restarting incremental Fock matrix formation ***
    7    -75.2754522967402124     3.46e-06  3.44e-04  7.76e-04  2.46e-04     0.1

                         ----------------------------
                         !        ITERATION     6   !
                         ----------------------------
   Total Energy        :     -75.275452296740 Eh
   Energy Change       :      -0.000003455537 Eh
   MAX-DP              :       0.000776429756
   RMS-DP              :       0.000343596394
   Orbital gradient    :       0.000245869331
   Orbital Rotation    :       0.000418141901
   alpha HOMO          :      -0.1417 Eh
   alpha LUMO          :       0.3605 Eh
   Int. Num. El.       :     9.99999768 (UP=    4.99999884 DN=    4.99999884)
   Exchange            :    -7.19338923 Eh
   Correlation         :    -0.40257719 Eh

    8    -75.2754524348580674    -1.38e-07  8.96e-05  2.38e-04  1.57e-04     0.2

                         ----------------------------
                         !        ITERATION     7   !
                         ----------------------------
   Total Energy        :     -75.275452434858 Eh
   Energy Change       :       0.000000138118 Eh
   MAX-DP              :       0.000238399489
   RMS-DP              :       0.000089577655
   Orbital gradient    :       0.000157269661
   Orbital Rotation    :       0.000107709570
   alpha HOMO          :      -0.1417 Eh
   alpha LUMO          :       0.3605 Eh
   Int. Num. El.       :     9.99999768 (UP=    4.99999884 DN=    4.99999884)
   Exchange            :    -7.19360729 Eh
   Correlation         :    -0.40259071 Eh

    9    -75.2754524875920907    -5.27e-08  4.97e-06  1.88e-05  6.10e-06     0.1

                         ----------------------------
                         !        ITERATION     8   !
                         ----------------------------
   Total Energy        :     -75.275452487592 Eh
   Energy Change       :       0.000000052734 Eh
   MAX-DP              :       0.000018821281
   RMS-DP              :       0.000004970200
   Orbital gradient    :       0.000006103952
   Orbital Rotation    :       0.000004443717
   alpha HOMO          :      -0.1417 Eh
   alpha LUMO          :       0.3605 Eh
   Int. Num. El.       :     9.99999768 (UP=    4.99999884 DN=    4.99999884)
   Exchange            :    -7.19350621 Eh
   Correlation         :    -0.40258510 Eh

   10    -75.2754524875648201     2.73e-11  4.70e-07  1.24e-06  3.28e-07     0.2
                 **** Energy Check signals convergence ****

                         ----------------------------
                         !        ITERATION     9   !
                         ----------------------------
   Total Energy        :     -75.275452487565 Eh
   Energy Change       :      -0.000000000027 Eh
   MAX-DP              :       0.000001238919
   RMS-DP              :       0.000000470036
   Orbital gradient    :       0.000000328119
   Orbital Rotation    :       0.000000429576
   alpha HOMO          :      -0.1417 Eh
   alpha LUMO          :       0.3605 Eh
   Int. Num. El.       :     9.99999768 (UP=    4.99999884 DN=    4.99999884)
   Exchange            :    -7.19350818 Eh
   Correlation         :    -0.40258516 Eh


               *****************************************************
               *                     SUCCESS                       *
               *           SCF CONVERGED AFTER  10 CYCLES          *
               *****************************************************

Recomputing exchange energy using gridx3       ... done (    0.050 sec)
Old exchange energy                            :     -1.820931728 Eh
New exchange energy                            :     -1.820920414 Eh
Exchange energy change after final integration :      0.000011314 Eh
Total energy after final integration           :    -75.275441173 Eh
             **** ENERGY FILE WAS UPDATED (orca.en.tmp) ****

----------------
TOTAL SCF ENERGY
----------------

Total Energy       :        -75.27544117333373 Eh           -2048.34889 eV

Components:
Nuclear Repulsion  :          9.20769921538166 Eh             250.55423 eV
Electronic Energy  :        -84.48315170294649 Eh           -2298.90343 eV
One Electron Energy:       -122.38412666331385 Eh           -3330.24139 eV
Two Electron Energy:         37.90097496036736 Eh            1031.33796 eV

Virial components:
Potential Energy   :       -149.87372222414160 Eh           -4078.27132 eV
Kinetic Energy     :         74.59828105080787 Eh            2029.92243 eV
Virial Ratio       :          2.00907742260260

DFT components:
N(Alpha)           :        4.999998839912 electrons
N(Beta)            :        4.999998839912 electrons
N(Total)           :        9.999997679823 electrons
E(X)               :       -7.193508180238 Eh       
E(C)               :       -0.402585162904 Eh       
E(XC)              :       -7.596093343142 Eh       

---------------
SCF CONVERGENCE
---------------

  Last Energy change         ...   -2.7271e-11  Tolerance :   1.0000e-08
  Last MAX-Density change    ...    1.2389e-06  Tolerance :   1.0000e-07
  Last RMS-Density change    ...    4.7004e-07  Tolerance :   5.0000e-09
  Last DIIS Error            ...    1.4520e-03  Tolerance :   5.0000e-07
  Last Orbital Gradient      ...    3.2812e-07  Tolerance :   1.0000e-05
  Last Orbital Rotation      ...    4.2958e-07  Tolerance :   1.0000e-05


----------------
ORBITAL ENERGIES
----------------

  NO   OCC          E(Eh)            E(eV) 
   0   2.0000     -18.831864      -512.4411 
   1   2.0000      -0.932621       -25.3779 
   2   2.0000      -0.440826       -11.9955 
   3   2.0000      -0.226700        -6.1688 
   4   2.0000      -0.140783        -3.8309 
   5   0.0000       0.360827         9.8186 
   6   0.0000       0.477591        12.9959 
------------------
MOLECULAR ORBITALS (RHF, ROHF)
------------------
                      0         1         2         3         4         5   
                 -18.83186  -0.93262  -0.44083  -0.22670  -0.14078   0.36083
                   2.00000   2.00000   2.00000   2.00000   2.00000   0.00000
                  --------  --------  --------  --------  --------  --------
  0O   1s         0.993391  0.227203  0.000359  0.122717 -0.000000 -0.131072
  0O   2s         0.030027 -0.797592 -0.001846 -0.607404  0.000000  0.874147
  0O   1pz        0.002958 -0.115844 -0.480479  0.462562 -0.000000  0.467868
  0O   1px        0.003860 -0.151270  0.371782  0.597943  0.000000  0.587418
  0O   1py        0.000000  0.000000  0.000000  0.000000  1.000000  0.000000
  1H   1s        -0.007211 -0.172729 -0.444405  0.275759  0.000000 -0.804057
  2H   1s        -0.007255 -0.174016  0.443551  0.275198 -0.000000 -0.787318
                      6   
                   0.47759
                   0.00000
                  --------
  0O   1s        -0.001675
  0O   2s         0.012314
  0O   1pz       -0.778204
  0O   1px        0.613261
  0O   1py       -0.000000
  1H   1s         0.830329
  2H   1s        -0.850362


-------
DENSITY
-------
                  0          1          2          3          4          5    
      0       2.107014  -0.451853   0.066420   0.085954   0.000000  -0.025455
      1      -0.451853   2.011997  -0.375180  -0.486225  -0.000000  -0.058253
      2       0.066420  -0.375180   0.916504   0.230975  -0.000000   0.722142
      3       0.085954  -0.486225   0.230975   1.037311   0.000000   0.051535
      4       0.000000  -0.000000  -0.000000   0.000000   2.000000   0.000000
      5      -0.025455  -0.058253   0.722142   0.051535   0.000000   0.606852
      6      -0.025627  -0.058798  -0.131368   0.711504  -0.000000  -0.182236
                  6    
      0      -0.025627
      1      -0.058798
      2      -0.131368
      3       0.711504
      4      -0.000000
      5      -0.182236
      6       0.605611



                    ********************************
                    * MULLIKEN POPULATION ANALYSIS *
                    ********************************

-----------------------
MULLIKEN ATOMIC CHARGES
-----------------------
   0 O :   -0.369213
   1 H :    0.184039
   2 H :    0.185173
Sum of atomic charges:   -0.0000000

------------------------
MULLIKEN ORBITAL CHARGES
------------------------
The uncorrected charge=density diagonal is given in parenthesis)
   0:   0O   1s           1.997293 (  2.107014)
   1:   0O   2s           1.849362 (  2.011997)
   2:   0O   1pz          1.213653 (  0.916504)
   3:   0O   1px          1.308904 (  1.037311)
   4:   0O   1py          2.000000 (  2.000000)
   5:   1H   1s           0.815961 (  0.606852)
   6:   2H   1s           0.814827 (  0.605611)
Sum of orbital charges :   10.0000000

--------------------------------
MULLIKEN REDUCED ORBITAL CHARGES
--------------------------------
  0 O s       :     3.846655  s :     3.846655
      pz      :     1.213653  p :     4.522558
      px      :     1.308904
      py      :     2.000000

  1 H s       :     0.815961  s :     0.815961

  2 H s       :     0.814827  s :     0.814827


------------------------
MULLIKEN OVERLAP CHARGES
------------------------
B(  0-O ,  1-H ) :   0.5102 B(  0-O ,  2-H ) :   0.5104 B(  1-H ,  2-H ) :  -0.0920 


-----------------------------------
MULLIKEN ORBITAL POPULATIONS PER MO
-----------------------------------
THRESHOLD FOR PRINTING IS 0.1%%
                      0         1         2         3         4         5   
                 -18.83186  -0.93262  -0.44083  -0.22670  -0.14078   0.36083
                   2.00000   2.00000   2.00000   2.00000   2.00000   0.00000
                  --------  --------  --------  --------  --------  --------
  0O   1s             99.3       0.4       0.0       0.1       0.0       0.1
  0O   2s              0.8      72.5       0.0      19.2       0.0       7.5
  0O   1pz             0.0       1.9      33.6      25.2       0.0      10.7
  0O   1px             0.0       3.3      20.1      42.0      -0.0      16.9
  0O   1py             0.0       0.0       0.0       0.0     100.0       0.0
  1H   1s             -0.0      10.9      23.2       6.8       0.0      33.0
  2H   1s             -0.0      11.0      23.1       6.7       0.0      31.7

                      6   
                   0.47759
                   0.00000
                  --------
  0O   1pz            28.6
  0O   1px            17.7
  1H   1s             26.2
  2H   1s             27.5


                     *******************************
                     * LOEWDIN POPULATION ANALYSIS *
                     *******************************

----------------------
LOEWDIN ATOMIC CHARGES
----------------------
   0 O :   -0.254088
   1 H :    0.126770
   2 H :    0.127317

-----------------------
LOEWDIN ORBITAL CHARGES
-----------------------
   0:   0O   1s           1.996009
   1:   0O   2s           1.691806
   2:   0O   1pz          1.237278
   3:   0O   1px          1.328995
   4:   0O   1py          2.000000
   5:   1H   1s           0.873230
   6:   2H   1s           0.872683

-------------------------------
LOEWDIN REDUCED ORBITAL CHARGES
-------------------------------
  0 O s       :     3.687815  s :     3.687815
      pz      :     1.237278  p :     4.566272
      px      :     1.328995
      py      :     2.000000

  1 H s       :     0.873230  s :     0.873230

  2 H s       :     0.872683  s :     0.872683


---------------------------------
LOEWDIN BOND ORDERS (THRESH 0.050000)
---------------------------------
B(  0-O ,  1-H ) :   0.9834 B(  0-O ,  2-H ) :   0.9832 

----------------------------------
LOEWDIN ORBITAL POPULATIONS PER MO
----------------------------------
THRESHOLD FOR PRINTING IS 0.1%%
                      0         1         2         3         4         5   
                 -18.83186  -0.93262  -0.44083  -0.22670  -0.14078   0.36083
                   2.00000   2.00000   2.00000   2.00000   2.00000   0.00000
                  --------  --------  --------  --------  --------  --------
  0O   1s             97.9       1.6       0.0       0.3       0.0       0.2
  0O   2s              2.1      63.0       0.0      19.5       0.0      15.4
  0O   1pz             0.0       1.6      34.5      25.8       0.0      10.5
  0O   1px             0.0       2.7      20.7      43.1       0.0      16.4
  0O   1py             0.0       0.0       0.0       0.0     100.0       0.0
  1H   1s              0.0      15.5      22.5       5.6       0.0      29.4
  2H   1s              0.0      15.7      22.3       5.6       0.0      28.1

                      6   
                   0.47759
                   0.00000
                  --------
  0O   1pz            27.7
  0O   1px            17.1
  1H   1s             26.9
  2H   1s             28.2

------------------------------------------
LOEWDIN REDUCED ORBITAL POPULATIONS PER MO
-------------------------------------------
THRESHOLD FOR PRINTING IS 0.1%%
                      0         1         2         3         4         5   
                 -18.83186  -0.93262  -0.44083  -0.22670  -0.14078   0.36083
                   2.00000   2.00000   2.00000   2.00000   2.00000   0.00000
                  --------  --------  --------  --------  --------  --------
 0 O  s             100.0      64.6       0.0      19.8       0.0      15.6
 0 O  pz              0.0       1.6      34.5      25.8       0.0      10.5
 0 O  px              0.0       2.7      20.7      43.1       0.0      16.4
 0 O  py              0.0       0.0       0.0       0.0     100.0       0.0
 1 H  s               0.0      15.5      22.5       5.6       0.0      29.4
 2 H  s               0.0      15.7      22.3       5.6       0.0      28.1

                      6   
                   0.47759
                   0.00000
                  --------
 0 O  pz             27.7
 0 O  px             17.1
 1 H  s              26.9
 2 H  s              28.2


                      *****************************
                      * MAYER POPULATION ANALYSIS *
                      *****************************

  NA   - Mulliken gross atomic population
  ZA   - Total nuclear charge
  QA   - Mulliken gross atomic charge
  VA   - Mayer's total valence
  BVA  - Mayer's bonded valence
  FA   - Mayer's free valence

  ATOM       NA         ZA         QA         VA         BVA        FA
  0 O      8.3692     8.0000    -0.3692     1.9075     1.9075    -0.0000
  1 H      0.8160     1.0000     0.1840     0.9661     0.9661    -0.0000
  2 H      0.8148     1.0000     0.1852     0.9657     0.9657    -0.0000

  Mayer bond orders larger than 0.100000
B(  0-O ,  1-H ) :   0.9540 B(  0-O ,  2-H ) :   0.9536 

-------
TIMINGS
-------

Total SCF time: 0 days 0 hours 0 min 2 sec 

Total time                  ....       2.073 sec
Sum of individual times     ....       1.876 sec  ( 90.5%)

SCF preparation             ....       0.343 sec  ( 16.5%)
Fock matrix formation       ....       1.105 sec  ( 53.3%)
  Startup                   ....       0.044 sec  (  4.0% of F)
  Split-RI-J                ....       0.036 sec  (  3.3% of F)
  Chain of spheres X        ....       0.454 sec  ( 41.1% of F)
  XC integration            ....       0.445 sec  ( 40.3% of F)
    XC Preparation          ....       0.000 sec  (  0.0% of XC)
    Basis function eval.    ....       0.094 sec  ( 21.1% of XC)
    Density eval.           ....       0.014 sec  (  3.1% of XC)
    XC-Functional eval.     ....       0.099 sec  ( 22.1% of XC)
    XC-Potential eval.      ....       0.005 sec  (  1.1% of XC)
Diagonalization             ....       0.000 sec  (  0.0%)
Density matrix formation    ....       0.084 sec  (  4.0%)
Total Energy calculation    ....       0.025 sec  (  1.2%)
Population analysis         ....       0.148 sec  (  7.1%)
Orbital Transformation      ....       0.018 sec  (  0.9%)
Orbital Orthonormalization  ....       0.000 sec  (  0.0%)
DIIS solution               ....       0.100 sec  (  4.8%)
  MO trafo                  ....       0.000 sec  (  0.0 % of DIIS)
  Orb grad                  ....       0.000 sec  (  0.0 % of DIIS)
  Energy W gradient         ....       0.000 sec  (  0.0 % of DIIS)
  DIIS error                ....       0.005 sec  (  5.0 % of DIIS)
  DIIS work                 ....       0.076 sec  ( 75.7 % of DIIS)
  Form Q                    ....       0.000 sec  (  0.0 % of DIIS)
  Form QpQm                 ....       0.000 sec  (  0.0 % of DIIS)
  Exp/Cayley                ....       0.000 sec  (  0.0 % of DIIS)
  Orb update                ....       0.000 sec  (  0.0 % of DIIS)
  Wake-sleep                ....       0.010 sec  ( 10.3 % of DIIS)
SOSCF solution              ....       0.052 sec  (  2.5%)
  MO trafo                  ....       0.024 sec  ( 46.0 % of SOSCF)
  Orb grad                  ....       0.007 sec  ( 12.8 % of SOSCF)
  Rot update                ....       0.012 sec  ( 23.2 % of SOSCF)
  Step                      ....       0.009 sec  ( 17.8 % of SOSCF)
Finished LeanSCF after   2.1 sec

Maximum memory used throughout the entire LEANSCF-calculation: 4.3 MB


           ************************************************************
           *        Program running with 2 parallel MPI-processes     *
           *              working on a common directory               *
           ************************************************************

------------------------------------------------------------------------------
                         ORCA PROPERTY INTEGRAL CALCULATIONS
------------------------------------------------------------------------------

GBWName                                   ... orca.gbw
Number of atoms                           ...      3
Number of basis functions                 ...      7
Max core memory                           ...   3000 MB

Dipole integrals                          ... YES
Quadrupole integrals                      ...  NO
Linear momentum integrals                 ... YES
Angular momentum integrals                ... YES
Higher moments length integrals           ...  NO
Higher moments velocity integrals         ...  NO
Kinetic energy integrals                  ...  NO
GIAO right hand sides                     ...  NO
GIAO dipole derivative integrals          ...  NO
SOC integrals                             ...  NO
EPR diamagnetic integrals (GIAO)          ...  NO
EPR gauge integrals                       ...  NO
Field gradient integrals                  ...  NO (   0 nuclei)
Spin-dipole/Fermi contact integrals       ...  NO (   0 nuclei)
Contact density integrals                 ...  NO (   0 nuclei)
Nucleus-orbit integrals                   ...  NO (   0 nuclei)
Geometric perturbations                   ...  NO (   3 nuclei)

Choice of electric origin   ... Center of mass
Position of electric origin ... (  0.0977,  0.0000,  0.0758) 
Choice of magnetic origin   ... GIAO
Position of magnetic origin ... (  0.0000,  0.0000,  0.0000) 

Calculating integrals                     ... Electric Dipole (Length)     done (  0.0 sec)
Calculating integrals                     ... Linear Momentum              done (  0.0 sec)
Calculating integrals                     ... Angular Momentum  (ElOri)    done (  0.0 sec)

Property integrals calculated in   0.0 sec

Maximum memory used throughout the entire PROPINT-calculation: 4.5 MB


           ************************************************************
           *        Program running with 2 parallel MPI-processes     *
           *              working on a common directory               *
           ************************************************************
------------------------------------------------------------------------------
                        ORCA TD-DFT/TDA CALCULATION
------------------------------------------------------------------------------

Input orbitals are from        ... orca.gbw
CI-vector output               ... orca.cis
Solver                         ... FN-2001
Tamm-Dancoff approximation     ... operative
CIS-Integral strategy          ... AO-integrals
Integral handling              ... AO integral Direct
Max. core memory used          ... 3000 MB
Reference state                ... RHF
Generation of triplets         ... off
Follow IRoot                   ... off
Number of operators            ... 1
Orbital ranges used for CIS calculation:
 Operator 0:  Orbitals   1...  4  to   5...  6
XAS localization array:
 Operator 0:  Orbitals  -1... -1

-------------------
XC-INTEGRATION GRID
-------------------

General Integration Accuracy     IntAcc      ... 3.467
Radial Grid Type                 RadialGrid  ... OptM3 with GC (2021)
Angular Grid (max. ang.)         AngularGrid ... 1 (Lebedev-50)
Angular grid pruning method      GridPruning ... 4 (adaptive)
Weight generation scheme         WeightScheme... mBecke (2022)
Basis function cutoff            BFCut       ... 1.0000e-11
Integration weight cutoff        WCut        ... 1.0000e-14
Partially contracted basis set               ... off
Rotationally invariant grid construction     ... off
Angular grids for H and He will be reduced by one unit

Total number of grid points                  ...     1833
Total number of batches                      ...       30
Average number of points per batch           ...       61
Average number of grid points per atom       ...      611

---------------------
COSX-INTEGRATION GRID
---------------------

General Integration Accuracy     IntAcc      ... 3.067
Radial Grid Type                 RadialGrid  ... OptM3 with GC (2021)
Angular Grid (max. ang.)         AngularGrid ... 1 (Lebedev-50)
Angular grid pruning method      GridPruning ... 4 (adaptive)
Weight generation scheme         WeightScheme... mBecke (2022)
Basis function cutoff            BFCut       ... 1.0000e-11
Integration weight cutoff        WCut        ... 1.0000e-14
Partially contracted basis set               ... on
Rotationally invariant grid construction     ... off
Angular grids for H and He will be reduced by one unit

Total number of grid points                  ...      838
Total number of batches                      ...        7
Average number of points per batch           ...      119
Average number of grid points per atom       ...      279

---------------
TD-DFT XC SETUP
---------------

DFT calculation                         ... on
Name of the grid file                   ... orca.grid_cis.tmp
RI-approximation                        ... on
Aux-basis dimension                     ... 0
Exchange functional (TD-DFT)            ... B88
   X-Alpha parameter    XAlpha (TD-DFT) ...  0.666667
   Becke's b parameter  XBeta (TD-DFT)  ...  0.004200
Correlation functional (TD-DFT)         ... LYP
 LDA part of GGA corr.  LDAOpt (TD-DFT) ... VWN-5
Hybrid DFT                              ... on
   Exchange mixing (TD-DFT)             ...  0.200
   GGA exch. scaling (TD-DFT)           ...  0.720
   GGA corr. scaling (TD-DFT)           ...  0.810

Building densities             ... done
Calculating rho(r) on the grid ... done
Building xc-kernel on the grid ... done
                    *** TD-DFT CALCULATION INITIALIZED ***

WARNING (orca_cis): NRoots > NCSFs. Resetting to NCSFs
------------------------
DAVIDSON-DIAGONALIZATION
------------------------

Dimension of the eigenvalue problem            ...      8
Number of roots to be determined               ...      8
Maximum size of the expansion space            ...      8
Maximum number of iterations                   ...    100
Convergence tolerance for the residual         ...    2.500e-07
Convergence tolerance for the energies         ...    2.500e-07
Orthogonality tolerance                        ...    1.000e-14
Level Shift                                    ...    0.000e+00
Constructing the preconditioner                ... o.k.
Building the initial guess                     ... o.k.
Number of trial vectors determined             ...      8


                       ****Iteration    0****
   Time for iteration     :  TOTAL=0.1 TRAFO=0.0 RIJ=0.0 COSX=0.0 XC=0.0
   Size of expansion space: 8
   Lowest Energy          :     0.431972713111
   Maximum Energy change  :     1.392163994101 (vector 7)
   Maximum residual norm  :     0.000000001954

      *** CONVERGENCE OF RESIDUAL NORM REACHED ***

Storing the converged CI vectors               ... orca.cis1

                 *** DAVIDSON DONE ***

Total time for solving the CIS problem:     0.404sec

------------------------------------
TD-DFT/TDA EXCITED STATES (SINGLETS)
------------------------------------

the weight of the individual excitations are printed if larger than 1.0e-02

STATE  1:  E=   0.431973 au     11.755 eV    94807.1 cm**-1 <S**2> =   0.000000 Mult 1
     4a ->   5a  :     0.999981 (c= -0.99999027)

STATE  2:  E=   0.516021 au     14.042 eV   113253.5 cm**-1 <S**2> =   0.000000 Mult 1
     4a ->   6a  :     0.999981 (c=  0.99999027)

STATE  3:  E=   0.539460 au     14.679 eV   118397.7 cm**-1 <S**2> =   0.000000 Mult 1
     2a ->   6a  :     0.048354 (c=  0.21989560)
     3a ->   5a  :     0.947586 (c= -0.97344008)

STATE  4:  E=   0.662215 au     18.020 eV   145339.4 cm**-1 <S**2> =   0.000000 Mult 1
     2a ->   5a  :     0.171029 (c=  0.41355634)
     3a ->   6a  :     0.826312 (c= -0.90901684)

STATE  5:  E=   0.803129 au     21.854 eV   176266.5 cm**-1 <S**2> =   0.000000 Mult 1
     2a ->   5a  :     0.827627 (c=  0.90973989)
     3a ->   6a  :     0.172057 (c=  0.41479796)

STATE  6:  E=   1.011858 au     27.534 eV   222077.1 cm**-1 <S**2> =   0.000000 Mult 1
     1a ->   5a  :     0.125620 (c=  0.35442887)
     2a ->   6a  :     0.840438 (c=  0.91675388)
     3a ->   5a  :     0.033878 (c=  0.18406069)

STATE  7:  E=   1.367116 au     37.201 eV   300047.4 cm**-1 <S**2> =   0.000000 Mult 1
     1a ->   6a  :     0.992136 (c= -0.99606046)

STATE  8:  E=   1.392164 au     37.883 eV   305544.7 cm**-1 <S**2> =   0.000000 Mult 1
     1a ->   5a  :     0.865837 (c=  0.93050340)
     2a ->   6a  :     0.110725 (c= -0.33275306)
     3a ->   5a  :     0.018449 (c= -0.13582806)


-----------------------------
TD-DFT/TDA-EXCITATION SPECTRA
-----------------------------

Center of mass = (  0.0977,  0.0000,  0.0758)
Generating CIS transition densities           ... done

----------------------------------------------------------------------------------------------------
                     ABSORPTION SPECTRUM VIA TRANSITION ELECTRIC DIPOLE MOMENTS    
----------------------------------------------------------------------------------------------------
     Transition      Energy     Energy  Wavelength fosc(D2)      D2        DX        DY        DZ   
                      (eV)      (cm-1)    (nm)                 (au**2)    (au)      (au)      (au)  
----------------------------------------------------------------------------------------------------
  0-1A  ->  1-1A   11.754575   94807.1   105.5   0.002612927   0.00907  -0.00000   0.09525  -0.00000
  0-1A  ->  2-1A   14.041644  113253.5    88.3   0.000000755   0.00000   0.00000  -0.00148  -0.00000
  0-1A  ->  3-1A   14.679440  118397.7    84.5   0.075170328   0.20902  -0.35831  -0.00000  -0.28396
  0-1A  ->  4-1A   18.019793  145339.4    68.8   0.063955732   0.14487  -0.23726   0.00000   0.29762
  0-1A  ->  5-1A   21.854259  176266.5    56.7   1.134821069   2.11950   0.88721  -0.00000  -1.15428
  0-1A  ->  6-1A   27.534044  222077.1    45.0   0.529060598   0.78429   0.70159   0.00000   0.54042
  0-1A  ->  7-1A   37.201128  300047.4    33.3   0.064635118   0.07092   0.13539   0.00000  -0.22932
  0-1A  ->  8-1A   37.882708  305544.7    32.7   0.303208041   0.32669  -0.46265   0.00000  -0.33563

----------------------------------------------------------------------------------------------------
                     ABSORPTION SPECTRUM VIA TRANSITION VELOCITY DIPOLE MOMENTS    
----------------------------------------------------------------------------------------------------
     Transition      Energy     Energy  Wavelength fosc(P2)      P2        PX        PY        PZ   
                      (eV)      (cm-1)    (nm)                 (au**2)    (au)      (au)      (au)  
----------------------------------------------------------------------------------------------------
  0-1A  ->  1-1A   11.754575   94807.1   105.5   0.026068036   0.01689   0.00000   0.12997   0.00000
  0-1A  ->  2-1A   14.041644  113253.5    88.3   0.000005446   0.00000  -0.00000  -0.00205   0.00000
  0-1A  ->  3-1A   14.679440  118397.7    84.5   0.131295548   0.10624   0.25657  -0.00000   0.20103
  0-1A  ->  4-1A   18.019793  145339.4    68.8   0.031800188   0.03159   0.11192   0.00000  -0.13806
  0-1A  ->  5-1A   21.854259  176266.5    56.7   0.596592729   0.71871  -0.51789  -0.00000   0.67120
  0-1A  ->  6-1A   27.534044  222077.1    45.0   0.160259351   0.24324  -0.39158   0.00000  -0.29983
  0-1A  ->  7-1A   37.201128  300047.4    33.3   0.035590497   0.07298  -0.14551   0.00000   0.22762
  0-1A  ->  8-1A   37.882708  305544.7    32.7   0.087040094   0.18176   0.34842   0.00000   0.24570

------------------------------------------------------------------------------------------
                     CD SPECTRUM VIA TRANSITION ELECTRIC DIPOLE MOMENTS    
------------------------------------------------------------------------------------------
     Transition      Energy     Energy  Wavelength    R        MX        MY        MZ   
                      (eV)      (cm-1)    (nm)   (1e40*cgs)   (au)      (au)      (au)  
------------------------------------------------------------------------------------------
  0-1A  ->  1-1A   11.754575   94807.1   105.5    0.00000  -0.15853   0.00000   0.19561
  0-1A  ->  2-1A   14.041644  113253.5    88.3   -0.00000  -0.25903   0.00000  -0.20491
  0-1A  ->  3-1A   14.679440  118397.7    84.5    0.00000   0.00000   0.00406  -0.00000
  0-1A  ->  4-1A   18.019793  145339.4    68.8   -0.00000  -0.00000  -0.34563  -0.00000
  0-1A  ->  5-1A   21.854259  176266.5    56.7   -0.00000   0.00000  -0.01626   0.00000
  0-1A  ->  6-1A   27.534044  222077.1    45.0    0.00000  -0.00000  -0.00003   0.00000
  0-1A  ->  7-1A   37.201128  300047.4    33.3    0.00000  -0.00000   0.07622  -0.00000
  0-1A  ->  8-1A   37.882708  305544.7    32.7   -0.00000  -0.00000  -0.00447   0.00000

------------------------------------------------------------------------------------------
                     CD SPECTRUM VIA TRANSITION VELOCITY DIPOLE MOMENTS    
------------------------------------------------------------------------------------------
     Transition      Energy     Energy  Wavelength    R        MX        MY        MZ   
                      (eV)      (cm-1)    (nm)   (1e40*cgs)   (au)      (au)      (au)  
------------------------------------------------------------------------------------------
  0-1A  ->  1-1A   11.754575   94807.1   105.5    0.00000  -0.15853   0.00000   0.19561
  0-1A  ->  2-1A   14.041644  113253.5    88.3   -0.00000  -0.25903   0.00000  -0.20491
  0-1A  ->  3-1A   14.679440  118397.7    84.5    0.00000   0.00000   0.00406  -0.00000
  0-1A  ->  4-1A   18.019793  145339.4    68.8   -0.00000  -0.00000  -0.34563  -0.00000
  0-1A  ->  5-1A   21.854259  176266.5    56.7   -0.00000   0.00000  -0.01626   0.00000
  0-1A  ->  6-1A   27.534044  222077.1    45.0    0.00000  -0.00000  -0.00003   0.00000
  0-1A  ->  7-1A   37.201128  300047.4    33.3    0.00000  -0.00000   0.07622  -0.00000
  0-1A  ->  8-1A   37.882708  305544.7    32.7   -0.00000  -0.00000  -0.00447   0.00000

Total run time:        0.613 sec

           *** ORCA-CIS/TD-DFT FINISHED WITHOUT ERROR ***
-----------------------
CIS/TD-DFT TOTAL ENERGY
-----------------------

    E(SCF)  =    -75.275441173 Eh
    DE(CIS) =      0.431972713 Eh (Root  1)
    ----------------------------- ---------
    E(tot)  =    -74.843468460 Eh


------------------------
TD-DFT GRADIENT XC SETUP
------------------------

Building densities                     ... done
Calculating rho(r) on the grid         ... done
Building xc-kernel on the grid         ... done
Building xc 3rd derivative on the grid ... done
                *** TD-DFT GRADIENT CALCULATION INITIALIZED ***

--------------------------
TD-DFT/TDA RELAXED DENSITY
--------------------------

Reference wavefunction             ... RHF
State of interest                  ... 1
Basis dimension                    ... 7
DFT-XC contribution needed         ... YES
RI-approximation                   ... YES
Do Coulomb                         ... YES
Do Exchange                        ... YES
Need Hartree-Fock Exchange         ... YES
facj, facx                         ...  2.000, -0.200
Conventional                       ... NO
Range separation                   ... NO
Triplet state                      ... NO
Spin Flip                          ... NO
CIS-vectors being read from        ... orca.cis
 => Number of Vectors found: 8
 => Orbital Window: 1...4 -> 5...6

Reading the CIS file                     ... done
Norm of the CI vector                    ... 1.000000000
Making the CIS (pseudo)densities         ... done
Making operators G(D) and Q(T)           ... (SHARK-ok)done
Transforming the Fock operators          ... done
Making the frozen-core relaxed density   ... done
Constructing the G(H) operator           ... (SHARK-ok)done
Transforming the G(H) operator           ... done
Calculating the CIS Lagrangian           ... done
Solving the Z-vector equations           ... 

Using XC Grid                  ... (orca.grid_cpscf.tmp) 
Recalculating density on grid  ... (orca.grho_cpscf0.tmp) done
Calculating the xc-kernel      ... (orca.fxc_cpscf0.tmp) done

-------------------
SHARK CP-SCF DRIVER
-------------------

Dimension of the orbital basis          ...      7
Dimension of the CPSCF-problem          ...     10
Number of operators                     ...      1
Max. number of iterations               ...    128
Convergence Tolerance                   ... 1.0e-04
Number of perturbations                 ...      1
Perturbation type                       ... REAL

----------------------------
POPLE LINEAR EQUATION SOLVER
----------------------------

  ITERATION   0:   ||err||_max =   4.9191e-01 (   0.1 sec)
  ITERATION   1:   ||err||_max =   1.5276e-03 (   0.1 sec)
  ITERATION   2:   ||err||_max =   1.3174e-04 (   0.1 sec)
  ITERATION   3:   ||err||_max =   1.7442e-06 (   0.1 sec)

Finalizing the relaxed density           ... done
Storing the relaxed density              ... done
Constructing the G(Z) operator           ... (SHARK-ok)done
Adding the XC terms                      ... done
Transforming the G(Z) operator           ... done
Making the W-matrix                      ... done
Finalizing the W-matrix                  ... done
Transforming the W-matrix                ... done
Nuc. rep. gradient        (SHARK) ... done (  0.0 sec)
HCore & Overlap gradient  (SHARK) ... done (  0.0 sec)
Split-RIJ-J gradient      (SHARK) ... done (  0.2 sec)
COSX-gradient                     ... done (  0.0 sec)

                 ---------------------------
                 EXCITED STATE GRADIENT DONE
                 ---------------------------

------------------
CARTESIAN GRADIENT
------------------

   1   O   :    0.276031695    0.000000003    0.224531003
   2   H   :    0.040226858    0.000000008   -0.348390998
   3   H   :   -0.316317278    0.000000004    0.123809228

Difference to translation invariance:
           :   -0.0000587247    0.0000000154   -0.0000507671

Difference to rotation invariance:
           :   -0.0000000128    0.0000043803    0.0000000072

Norm of the Cartesian gradient     ...    0.6041419545
RMS gradient                       ...    0.2013806515
MAX gradient                       ...    0.3483909983

------------------------------------------------------------------------------
                  RELAXED CIS/TDA DENSITY POPULATION ANALYSIS
                                   IROOT 1
------------------------------------------------------------------------------
------------------------------------------------------------------------------
                           ORCA POPULATION ANALYSIS
------------------------------------------------------------------------------
Input electron density              ... orca.cispre.singlet.iroot1
BaseName (.gbw .S,...)              ... orca

                    ********************************
                    * MULLIKEN POPULATION ANALYSIS *
                    ********************************

-----------------------
MULLIKEN ATOMIC CHARGES
-----------------------
   0 O :   -0.051380
   1 H :    0.019389
   2 H :    0.031991
Sum of atomic charges:   -0.0000000

------------------------
MULLIKEN ORBITAL CHARGES
[...]
Static polarizability (Dipole/Dipole)   ...  NO
Static polarizability (Dipole/Quad.)    ...  NO
Static polarizability (Quad./Quad.)     ...  NO
Static polarizability (Velocity)        ...  NO

Atomic electric properties:
Dipole moment                           ...  NO
Quadrupole moment                       ...  NO
Static polarizability                   ...  NO

Choice of electric origin               ... Center of mass
Position of electric origin             ...     0.120764     0.000000    -0.397722

General magnetic properties:
Magnetizability                         ...  NO

EPR properties:
g-Tensor (aka g-matrix)                 ...  NO
Zero-Field splitting spin-orbit         ...  NO
Zero-field splitting spin-spin          ...  NO
Hyperfine couplings                     ...  NO (   0 nuclei)
Quadrupole couplings                    ...  NO (   0 nuclei)
Contact density                         ...  NO (   0 nuclei)

NMR properties:
Chemical shifts                         ...  NO (   0 nuclei)
Spin-rotation constants                 ...  NO (   0 nuclei)
Spin-spin couplings                     ...  NO (   0 nuclei,    0 pairs)

Choice of magnetic origin               ... GIAO
Position of magnetic origin             ...     0.000000     0.000000     0.000000

Properties with geometric perturbations:
SCF Hessian                             ...  NO
IR spectrum                             ... YES
VCD spectrum                            ...  NO
X-ray spectroscopy properties:
SCF XES/XAS/RIXS spectra                ...  NO


-------------
DIPOLE MOMENT
-------------

Method             : SCF
Type of density    : Electron Density
Multiplicity       :   1
Irrep              :   0
Energy             :   -75.1649669117823009 Eh
Relativity type    : 
Basis              : AO
                                X                 Y                 Z
Electronic contribution:     -0.296954162       0.000000000      -1.129931514
Nuclear contribution   :      0.732378076       0.000000000       1.349054548
                        -----------------------------------------
Total Dipole Moment    :      0.435423913       0.000000000       0.219123035
                        -----------------------------------------
Magnitude (a.u.)       :      0.487451422
Magnitude (Debye)      :      1.239003049



--------------------
Rotational spectrum 
--------------------
 
Rotational constants in cm-1:            16.725560             6.510137             4.686138 
Rotational constants in MHz :        501419.661046        195168.987534        140486.882431 

Dipole components along the rotational axes: 
x,y,z [a.u.] :    -0.111869     0.474441    -0.000000 
x,y,z [Debye]:    -0.284350     1.205933    -0.000000 

 

-------------
DIPOLE MOMENT
-------------

Method             : TDA/CIS
Type of density    : Electron Density
Level              : Relaxed density
State              :   1
Multiplicity       :   1
Irrep              :   0
Energy             :     0.0000000000000000 Eh
Relativity type    : 
Basis              : AO
                                X                 Y                 Z
Electronic contribution:     -0.207640823       0.000000023      -1.616722645
Nuclear contribution   :      0.732378076       0.000000000       1.349054548
                        -----------------------------------------
Total Dipole Moment    :      0.524737253       0.000000023      -0.267668096
                        -----------------------------------------
Magnitude (a.u.)       :      0.589063149
Magnitude (Debye)      :      1.497279535



--------------------
Rotational spectrum 
--------------------
 
Rotational constants in cm-1:            16.725560             6.510137             4.686138 
Rotational constants in MHz :        501419.661046        195168.987534        140486.882431 

Dipole components along the rotational axes: 
x,y,z [a.u.] :     0.382346     0.448114    -0.000000 
x,y,z [Debye]:     0.971848     1.139016    -0.000000 

 

Dipole moment calculation done in   0.2 sec 

Maximum memory used throughout the entire PROP-calculation: 8.6 MB

----------------------------------------------------------------------------
                           ORCA NUMERICAL FREQUENCIES
                              (2-process run)
----------------------------------------------------------------------------

Number of atoms                ... 3
Central differences            ... used
Number of displacements        ... 18
Numerical increment            ... 5.000e-03 bohr
IR-spectrum generation         ... on
Raman-spectrum generation      ... off
Surface Crossing Hessian       ... off

The output will be reduced. Please look at the following files:
SCF program output             ... >orca.lastscf
Integral program output        ... >orca.lastint
Gradient program output        ... >orca.lastgrad
Dipole moment program output   ... >orca.lastmom

List of participating nodes    ...  orca.hostnames

	<< Calculating gradient on displaced geometry   1 (of  18) >>
	<< Calculating gradient on displaced geometry   2 (of  18) >>
	<< Calculating gradient on displaced geometry   3 (of  18) >>
	<< Calculating gradient on displaced geometry   4 (of  18) >>
	<< Calculating gradient on displaced geometry   5 (of  18) >>
	<< Calculating gradient on displaced geometry   6 (of  18) >>
	<< Calculating gradient on displaced geometry   7 (of  18) >>
	<< Calculating gradient on displaced geometry   8 (of  18) >>
	<< Calculating gradient on displaced geometry   9 (of  18) >>
	<< Calculating gradient on displaced geometry  10 (of  18) >>
	<< Calculating gradient on displaced geometry  11 (of  18) >>
	<< Calculating gradient on displaced geometry  12 (of  18) >>
	<< Calculating gradient on displaced geometry  13 (of  18) >>
	<< Calculating gradient on displaced geometry  14 (of  18) >>
	<< Calculating gradient on displaced geometry  15 (of  18) >>
	<< Calculating gradient on displaced geometry  16 (of  18) >>
	<< Calculating gradient on displaced geometry  17 (of  18) >>
	<< Calculating gradient on displaced geometry  18 (of  18) >>

-----------------------
VIBRATIONAL FREQUENCIES
-----------------------

Scaling factor for frequencies =  1.000000000  (already applied!)

     0:       0.00 cm**-1
     1:       0.00 cm**-1
     2:       0.00 cm**-1
     3:       0.00 cm**-1
     4:       0.00 cm**-1
     5:       0.00 cm**-1
     6:     670.17 cm**-1
     7:    1675.21 cm**-1
     8:    3597.05 cm**-1


------------
NORMAL MODES
------------

These modes are the Cartesian displacements weighted by the diagonal matrix
M(i,i)=1/sqrt(m[i]) where m[i] is the mass of the displaced atom
Thus, these vectors are normalized but *not* orthogonal

                  0          1          2          3          4          5    
      0       0.000000   0.000000   0.000000   0.000000   0.000000   0.000000
      1       0.000000   0.000000   0.000000   0.000000   0.000000   0.000000
      2       0.000000   0.000000   0.000000   0.000000   0.000000   0.000000
      3       0.000000   0.000000   0.000000   0.000000   0.000000   0.000000
      4       0.000000   0.000000   0.000000   0.000000   0.000000   0.000000
      5       0.000000   0.000000   0.000000   0.000000   0.000000   0.000000
      6       0.000000   0.000000   0.000000   0.000000   0.000000   0.000000
      7       0.000000   0.000000   0.000000   0.000000   0.000000   0.000000
      8       0.000000   0.000000   0.000000   0.000000   0.000000   0.000000
                  6          7          8    
      0      -0.031270  -0.007540   0.063216
      1       0.000000   0.000000  -0.000000
      2      -0.056981   0.059089  -0.000037
      3       0.535312   0.134940  -0.005424
      4       0.000000   0.000000  -0.000000
      5       0.065729  -0.987688   0.006677
      6      -0.038992  -0.015262  -0.997944
      7      -0.000000   0.000000  -0.000000
      8       0.838675   0.049826  -0.006087


-----------
IR SPECTRUM
-----------

 Mode   freq       eps      Int      T**2         TX        TY        TZ
       cm**-1   L/(mol*cm) km/mol    a.u.
----------------------------------------------------------------------------
  6:    670.17   0.001022    5.16  0.000476  ( 0.007190 -0.000000  0.020592)
  7:   1675.21   0.005292   26.75  0.000986  (-0.002491 -0.000000  0.031300)
  8:   3597.05   0.012557   63.46  0.001089  ( 0.032650 -0.000000  0.004834)

* The epsilon (eps) is given for a Dirac delta lineshape.
** The dipole moment derivative (T) already includes vibrational overlap.

The first frequency considered to be a vibration is 6
The total number of vibrations considered is 3


--------------------------
THERMOCHEMISTRY AT 293.00K
--------------------------

Temperature         ...   293.00 K
Pressure            ...     1.00 atm
Total Mass          ...    18.02 AMU
Quasi RRHO          ...     True
Cut-Off Frequency   ...     1.00 cm^-1

Throughout the following assumptions are being made:
  (1) The electronic state is orbitally nondegenerate
  (2) There are no thermally accessible electronically excited states
  (3) Hindered rotations indicated by low frequency modes are not
      treated as such but are treated as vibrations and this may
      cause some error
  (4) All equations used are the standard statistical mechanics
      equations for an ideal gas
  (5) All vibrations are strictly harmonic

freq.     670.17  E(vib)   ...       0.07 
freq.    1675.21  E(vib)   ...       0.00 
freq.    3597.05  E(vib)   ...       0.00 

------------
INNER ENERGY
------------

The inner energy is: U= E(el) + E(ZPE) + E(vib) + E(rot) + E(trans)
    E(el)   - is the total energy from the electronic structure calculation
              = E(kin-el) + E(nuc-el) + E(el-el) + E(nuc-nuc)
    E(ZPE)  - the the zero temperature vibrational energy from the frequency calculation
    E(vib)  - the the finite temperature correction to E(ZPE) due to population
              of excited vibrational states
    E(rot)  - is the rotational thermal energy
    E(trans)- is the translational thermal energy

Summary of contributions to the inner energy U:
Electronic energy                ...    -75.05617974 Eh
Zero point energy                ...      0.01353784 Eh       8.50 kcal/mol
Thermal vibrational correction   ...      0.00012011 Eh       0.08 kcal/mol
Thermal rotational correction    ...      0.00139181 Eh       0.87 kcal/mol
Thermal translational correction ...      0.00139181 Eh       0.87 kcal/mol
-----------------------------------------------------------------------
Total thermal energy                    -75.03973819 Eh


Summary of corrections to the electronic energy:
(perhaps to be used in another calculation)
Total thermal correction                  0.00290372 Eh       1.82 kcal/mol
Non-thermal (ZPE) correction              0.01353784 Eh       8.50 kcal/mol
-----------------------------------------------------------------------
Total correction                          0.01644156 Eh      10.32 kcal/mol


--------
ENTHALPY
--------

The enthalpy is H = U + kB*T
                kB is Boltzmann's constant
Total thermal energy              ...    -75.03973819 Eh 
Thermal Enthalpy correction       ...      0.00092790 Eh       0.58 kcal/mol
-----------------------------------------------------------------------
Total Enthalpy                    ...    -75.03881029 Eh


Note: Rotational entropy computed according to Herzberg 
Infrared and Raman Spectra, Chapter V,1, Van Nostrand Reinhold, 1945 
Point Group:  Cs, Symmetry Number:   1  
Rotational constants in cm-1:    16.725560     6.510137     4.686138 

Vibrational entropy computed according to the QRRHO of S. Grimme
Chem.Eur.J. 2012 18 9955 using a reference frequency of 100.0 cm-1


-------
ENTROPY
-------

The entropy contributions are T*S = T*(S(el)+S(vib)+S(rot)+S(trans))
     S(el)   - electronic entropy
     S(vib)  - vibrational entropy
     S(rot)  - rotational entropy
     S(trans)- translational entropy
The entropies will be listed as multiplied by the temperature to get
units of energy

Electronic entropy                ...      0.00000000 Eh      0.00 kcal/mol
Vibrational entropy               ...      0.00015569 Eh      0.10 kcal/mol
Rotational entropy                ...      0.00642968 Eh      4.03 kcal/mol
Translational entropy             ...      0.01611935 Eh     10.12 kcal/mol
-----------------------------------------------------------------------
Final entropy term                ...      0.02270472 Eh     14.25 kcal/mol

In case the symmetry of your molecule has not been determined correctly
or in case you have a reason to use a different symmetry number we print 
out the resulting rotational entropy values for sn=1,12:

 non-linear molecules -----------------------------------
|  sn= 1 | S(rot)=       0.00642968 Eh      4.03 kcal/mol|
|  sn= 2 | S(rot)=       0.00578653 Eh      3.63 kcal/mol|
|  sn= 3 | S(rot)=       0.00541031 Eh      3.40 kcal/mol|
|  sn= 4 | S(rot)=       0.00514338 Eh      3.23 kcal/mol|
|  sn= 5 | S(rot)=       0.00493633 Eh      3.10 kcal/mol|
|  sn= 6 | S(rot)=       0.00476716 Eh      2.99 kcal/mol|
|  sn= 7 | S(rot)=       0.00462412 Eh      2.90 kcal/mol|
|  sn= 8 | S(rot)=       0.00450022 Eh      2.82 kcal/mol|
|  sn= 9 | S(rot)=       0.00439094 Eh      2.76 kcal/mol|
|  sn=10 | S(rot)=       0.00429318 Eh      2.69 kcal/mol|
|  sn=11 | S(rot)=       0.00420474 Eh      2.64 kcal/mol|
|  sn=12 | S(rot)=       0.00412400 Eh      2.59 kcal/mol|
 linear molecules ---------------------------------------
|  Dinfh | S(rot)=       0.00378445 Eh      2.37 kcal/mol|
|  Cinfv | S(rot)=       0.00442760 Eh      2.78 kcal/mol|
 --------------------------------------------------------


-------------------
GIBBS FREE ENERGY
-------------------

The Gibbs free energy is G = H - T*S

Total enthalpy                    ...    -75.03881029 Eh 
Total entropy correction          ...     -0.02270472 Eh    -14.25 kcal/mol
-----------------------------------------------------------------------
Final Gibbs free energy         ...    -75.06151501 Eh

For completeness - the Gibbs free energy minus the electronic energy
G-E(el)                           ...     -0.00533526 Eh     -3.35 kcal/mol



--------------------------------
SUGGESTED CITATIONS FOR THIS RUN
--------------------------------

Below you find a list of papers that are relevant to this ORCA run
We neither can nor want to force you to cite these papers, but we appreciate if you do
You receive ORCA, which is the product of decades of hard work by many enthusiastic individuals, for free
The only thing we kindly ask in return is that you cite our papers,
We deeply appreciate it, if you show your appreciation for ORCA by not just citing the generic ORCA reference.

Please note that relegating all ORCA citations to the supporting information does *not* help us.
SI sections are not indexed - citations you put there will not count into any citation statistics
But we need these citations in order to attract the funding resources that allow us to do what we are doing

Therefore, if you are a happy ORCA user, please consider citing a few of the papers listed below in the main body of your paper

In addition to the list printed below, the program has created the file orca.bibtex that contains the list in bibtex format
You can import this file easily into all common literature databanks and citation aid programs


List of essential papers. We consider these as the minimum necessary citations

  1. Neese,F.
     Software update: the ORCA program system, version 5.0
     WIRES Comput. Molec. Sci., 2022 12(1)e1606
     doi.org/10.1002/wcms.1606

List of papers to cite with high priority. The work reported in these papers was absolutely
necessary for this run to complete.
Our perspective: the developers of density functionals and basis sets usually get cited in chemistry papers
Good! But without the algorithms to do something with them, the functionals or basis sets would not do anything.
Hence, in our opinion, the algorithm design and method developments papers are equally worthy of getting cited

  1. Neese,F.; Olbrich,G.
     Efficient use of the resolution of the identity approximation in time-dependent density functional calculations with hybrid density functionals
     Chem. Phys. Lett., 2002 362 170-178
     doi.org/10.1016/s0009-2614(02)01053-9
  2. Neese,F.
     An improvement of the resolution of the identity approximation for the formation of the Coulomb matrix
     J. Comp. Chem., 2003 24(14)1740-1747
     doi.org/10.1002/jcc.10318
  3. Neese,F.; Wennmohs,F.; Hansen,A.; Becker,U.
     Efficient, approximate and parallel Hartree-Fock and hybrid DFT calculations. A 'chain-of-spheres' algorithm for the Hartree-Fock exchange
     Chem. Phys., 2009 356(1-3)98-109
     doi.org/10.1016/j.chemphys.2008.10.036
  4. Petrenko,T.; Kossmann,S.; Neese,F.
     Efficient time-dependent density functional theory approximations for hybrid density functionals: Analytical gradients and parallelization
     J. Chem. Phys., 2011 134 054116
     doi.org/10.1063/1.3533441
  5. Bykov,D.; Petrenko,T.; Izsak,R.; Kossmann,S.; Becker,U.; Valeev,E.; Neese,F.
     Efficient implementation of the analytic second derivatives of Hartree-Fock and hybrid DFT energies: a detailed analysis of different approximations
     Molec. Phys., 2015 113 1961-1977
     doi.org/10.1080/00268976.2015.1025114
  6. Helmich-Paris,B.; de Souza,B.; Neese,F.; Izsák,R.
     An improved chain of spheres for exchange algorithm
     J. Chem. Phys., 2021 155 104109
     doi.org/doi: 10.1063/5.0058766.
  7. Neese,F.
     The SHARK Integral Generation and Digestion System
     J. Comp. Chem., 2022  1-16
     doi.org/10.1002/jcc.26942

List of suggested additional citations. These are papers that are important in the 'surrounding' of 
of this run, or papers that preceded the highly important papers. If you like your results we are grateful for a citation.

  1. Izsak,R.; Neese,F.
     An overlap fitted chain of spheres exchange method
     J. Chem. Phys., 2011 135 144105
     doi.org/10.1063/1.3646921
  2. Izsak,R.; Hansen,A.; Neese,F.
     The resolution of identity and chain of spheres approximations for the LPNO-CCSD singles Fock term
     Molec. Phys., 2012 110 2413-2417
     doi.org/10.1080/00268976.2012.687466
  3. Neese,F.
     The ORCA program system
     WIRES Comput. Molec. Sci., 2012 2(1)73-78
     doi.org/10.1002/wcms.81
  4. Izsak,R.; Neese,F.; Klopper,W.
     Robust fitting techniques in the chain of spheres approximation to the Fock exchange: The role of the complementary space
     J. Chem. Phys., 2013 139 
     doi.org/10.1063/1.4819264
  5. Neese,F.
     Software update: the ORCA program system, version 4.0
     WIRES Comput. Molec. Sci., 2018 8(1)1-6
     doi.org/10.1002/wcms.1327
  6. Neese,F.; Wennmohs,F.; Becker,U.; Riplinger,C.
     The ORCA quantum chemistry program package
     J. Chem. Phys., 2020 152 Art. No. L224108
     doi.org/10.1063/5.0004608

List of optional additional citations

  1. Neese,F.
     Approximate second-order SCF convergence for spin unrestricted wavefunctions
     Chem. Phys. Lett., 2000 325(1-3)93-98
     doi.org/10.1016/s0009-2614(00)00662-x

Timings for individual modules:

Sum of individual times          ...      178.695 sec (=   2.978 min)
Startup calculation              ...       15.770 sec (=   0.263 min)   8.8 %
SCF iterations                   ...       50.638 sec (=   0.844 min)  28.3 %
Property integrals               ...        9.842 sec (=   0.164 min)   5.5 %
Property calculations            ...        0.492 sec (=   0.008 min)   0.3 %
CIS module                       ...       48.662 sec (=   0.811 min)  27.2 %
Geometry relaxation              ...        0.223 sec (=   0.004 min)   0.1 %
Numerical frequency calculation  ...       53.066 sec (=   0.884 min)  29.7 %
                             ****ORCA TERMINATED NORMALLY****
TOTAL RUN TIME: 0 days 0 hours 3 minutes 6 seconds 147 msec
